
     Program PWSCF v.5.2.0 starts on  8Sep2019 at  8: 9: 5 

     This program is part of the open-source Quantum ESPRESSO suite
     for quantum simulation of materials; please cite
         "P. Giannozzi et al., J. Phys.:Condens. Matter 21 395502 (2009);
          URL http://www.quantum-espresso.org", 
     in publications or presentations arising from this work. More details at
     http://www.quantum-espresso.org/quote

     Parallel version (MPI & OpenMP), running on     512 processor cores
     Number of MPI processes:                64
     Threads/MPI process:                     8
     R & G space division:  proc/nbgrp/npool/nimage =      64
     Waiting for input...
     Reading input from standard input

     Current dimensions of program PWSCF are:
     Max number of different atomic species (ntypx) = 10
     Max number of k-points (npk) =  40000
     Max angular momentum in pseudopotentials (lmaxx) =  3

     Subspace diagonalization in iterative solution of the eigenvalue problem:
     scalapack distributed-memory algorithm (size of sub-group:  5*  5 procs)

 
     Parallelization info
     --------------------
     sticks:   dense  smooth     PW     G-vecs:    dense   smooth      PW
     Min         267     267     69                33297    33297    4437
     Max         268     268     70                33304    33304    4446
     Sum       17139   17139   4479              2131249  2131249  284417
 


     bravais-lattice index     =            0
     lattice parameter (alat)  =      27.8924  a.u.
     unit-cell volume          =   33945.5266 (a.u.)^3
     number of atoms/cell      =          153
     number of atomic types    =            4
     number of electrons       =       580.00
     number of Kohn-Sham states=          320
     kinetic-energy cutoff     =      60.0000  Ry
     charge density cutoff     =     240.0000  Ry
     convergence threshold     =      1.0E-06
     mixing beta               =       0.7000
     number of iterations used =            8  local-TF  mixing
     Exchange-correlation      = SLA-PW-PBX-PBC ( 1  4  3  4 0 0)
     nstep                     =           50


     celldm(1)=  27.892358  celldm(2)=   0.000000  celldm(3)=   0.000000
     celldm(4)=   0.000000  celldm(5)=   0.000000  celldm(6)=   0.000000

     crystal axes: (cart. coord. in units of alat)
               a(1) = (   1.000000   0.000000   0.000000 )  
               a(2) = (   0.000000   1.154472   0.000000 )  
               a(3) = (   0.000000   0.000000   1.355014 )  

     reciprocal axes: (cart. coord. in units 2 pi/alat)
               b(1) = (  1.000000  0.000000  0.000000 )  
               b(2) = (  0.000000  0.866197  0.000000 )  
               b(3) = (  0.000000  0.000000  0.738000 )  


     PseudoPot. # 1 for Zn read from file:
     /home/sacss11/scratch/sacss11/hmah/jobs/g_znpc/pp/Zn.pbe-d-hgh.UPF
     MD5 check sum: 840b59d6b5d6b778dd7efd2cc31f93c9
     Pseudo is Norm-conserving, Zval = 12.0
     Generated in analytical, separable form
     Using radial grid of 1201 points,  6 beta functions with: 
                l(1) =   0
                l(2) =   0
                l(3) =   0
                l(4) =   1
                l(5) =   1
                l(6) =   2

     PseudoPot. # 2 for  N read from file:
     /home/sacss11/scratch/sacss11/hmah/jobs/g_znpc/pp/N.pbe-hgh.UPF
     MD5 check sum: 1504e9c56d21d37eacabc67df972de26
     Pseudo is Norm-conserving, Zval =  5.0
     Generated in analytical, separable form
     Using radial grid of 1085 points,  1 beta functions with: 
                l(1) =   0

     PseudoPot. # 3 for  C read from file:
     /home/sacss11/scratch/sacss11/hmah/jobs/g_znpc/pp/C.pbe-hgh.UPF
     MD5 check sum: ca26ff84b356733038fc2f5c468d1892
     Pseudo is Norm-conserving, Zval =  4.0
     Generated in analytical, separable form
     Using radial grid of 1073 points,  1 beta functions with: 
                l(1) =   0

     PseudoPot. # 4 for  H read from file:
     /home/sacss11/scratch/sacss11/hmah/jobs/g_znpc/pp/H.pbe-hgh.UPF
     MD5 check sum: 50ae4f52d34cf16cdfed4bce9c5a191e
     Pseudo is Norm-conserving, Zval =  1.0
     Generated in analytical, separable form
     Using radial grid of  929 points,  0 beta functions with: 

     atomic species   valence    mass     pseudopotential
        Zn            12.00    65.39000     Zn( 1.00)
        N              5.00    14.00674      N( 1.00)
        C              4.00    12.01070      C( 1.00)
        H              1.00     1.00794      H( 1.00)


     Simplified LDA+U calculation (l_max = 2) with parameters (eV):
     atomic species    L          U    alpha       J0     beta
        Zn             2     7.0000   0.0000   0.0000   0.0000
        N              1     5.5000   0.0000   0.0000   0.0000
        C              1     5.5000   0.0000   0.0000   0.0000



     No symmetry found



   Cartesian axes

     site n.     atom                  positions (alat units)
         1           C   tau(   1) = (  -0.0001325  -0.0013544   0.1345902  )
         2           C   tau(   2) = (  -0.0000123   0.0949041   0.1346767  )
         3           C   tau(   3) = (   0.1665684  -0.0012392   0.1346463  )
         4           C   tau(   4) = (   0.1667332   0.0948204   0.1345985  )
         5           C   tau(   5) = (   0.0832402   0.1430267   0.1347396  )
         6           C   tau(   6) = (   0.0833519   0.2391308   0.1347582  )
         7           C   tau(   7) = (  -0.0001528   0.2872326   0.1347494  )
         8           C   tau(   8) = (  -0.0000026   0.3835283   0.1348002  )
         9           C   tau(   9) = (   0.3332108  -0.0013302   0.1346843  )
        10           C   tau(  10) = (   0.3333771   0.0949215   0.1343251  )
        11           C   tau(  11) = (   0.2499807   0.1430257   0.1343429  )
        12           C   tau(  12) = (   0.2500864   0.2391195   0.1342623  )
        13           C   tau(  13) = (   0.1666296   0.2873227   0.1345454  )
        14           C   tau(  14) = (   0.1667610   0.3833943   0.1344868  )
        15           C   tau(  15) = (   0.0831922   0.4316379   0.1347275  )
        16           C   tau(  16) = (   0.0833199   0.5276985   0.1346371  )
        17           C   tau(  17) = (  -0.0001074   0.5758216   0.1347900  )
        18           C   tau(  18) = (   0.0000429   0.6721093   0.1347243  )
        19           C   tau(  19) = (   0.4999014  -0.0012577   0.1348615  )
        20           C   tau(  20) = (   0.5000530   0.0948313   0.1345142  )
        21           C   tau(  21) = (   0.4165108   0.1430343   0.1342031  )
        22           C   tau(  22) = (   0.4166334   0.2391298   0.1339078  )
        23           C   tau(  23) = (   0.3332681   0.2872346   0.1339848  )
        24           C   tau(  24) = (   0.3333703   0.3834669   0.1338688  )
        25           C   tau(  25) = (   0.2498895   0.4315849   0.1340687  )
        26           C   tau(  26) = (   0.2500070   0.5277224   0.1339742  )
        27           C   tau(  27) = (   0.1666215   0.5759454   0.1342383  )
        28           C   tau(  28) = (   0.1667472   0.6719676   0.1342122  )
        29           C   tau(  29) = (   0.0831877   0.7201897   0.1344942  )
        30           C   tau(  30) = (   0.0833141   0.8163129   0.1345175  )
        31           C   tau(  31) = (  -0.0001007   0.8644335   0.1346473  )
        32           C   tau(  32) = (   0.0000156   0.9606946   0.1345777  )
        33           C   tau(  33) = (   0.6665725  -0.0013352   0.1347385  )
        34           C   tau(  34) = (   0.6667096   0.0948965   0.1344788  )
        35           C   tau(  35) = (   0.5832316   0.1430134   0.1343513  )
        36           C   tau(  36) = (   0.5833833   0.2391604   0.1339095  )
        37           C   tau(  37) = (   0.4999330   0.2873561   0.1337595  )
        38           C   tau(  38) = (   0.5000353   0.3833444   0.1336476  )
        39           C   tau(  39) = (   0.4164755   0.4315699   0.1336577  )
        40           C   tau(  40) = (   0.4166052   0.5277583   0.1335956  )
        41           C   tau(  41) = (   0.3332155   0.5758761   0.1337321  )
        42           C   tau(  42) = (   0.3333300   0.6720471   0.1338778  )
        43           C   tau(  43) = (   0.2498940   0.7201472   0.1340879  )
        44           C   tau(  44) = (   0.2500562   0.8163436   0.1342622  )
        45           C   tau(  45) = (   0.1665911   0.8645394   0.1344355  )
        46           C   tau(  46) = (   0.1666943   0.9605852   0.1345578  )
        47           C   tau(  47) = (   0.0831876   1.0088285   0.1345465  )
        48           C   tau(  48) = (   0.0833385   1.1049893   0.1345821  )
        49           C   tau(  49) = (   0.8332135  -0.0012464   0.1345819  )
        50           C   tau(  50) = (   0.8333131   0.0947945   0.1344934  )
        51           C   tau(  51) = (   0.7498408   0.1430064   0.1342933  )
        52           C   tau(  52) = (   0.7499989   0.2391833   0.1340886  )
        53           C   tau(  53) = (   0.6665460   0.2872767   0.1338473  )
        54           C   tau(  54) = (   0.6666554   0.3834525   0.1337143  )
        55           C   tau(  55) = (   0.5832875   0.4315516   0.1336027  )
        56           C   tau(  56) = (   0.5834258   0.5277603   0.1336469  )
        57           C   tau(  57) = (   0.4998631   0.5759862   0.1336317  )
        58           C   tau(  58) = (   0.4999709   0.6719671   0.1337984  )
        59           C   tau(  59) = (   0.4165126   0.7201808   0.1339391  )
        60           C   tau(  60) = (   0.4166681   0.8163038   0.1343853  )
        61           C   tau(  61) = (   0.3331747   0.8644250   0.1344830  )
        62           C   tau(  62) = (   0.3333195   0.9606647   0.1347445  )
        63           C   tau(  63) = (   0.2499428   1.0088156   0.1346972  )
        64           C   tau(  64) = (   0.2500959   1.1050113   0.1347250  )
        65           C   tau(  65) = (   0.9165880   0.1430249   0.1345810  )
        66           C   tau(  66) = (   0.9167053   0.2391693   0.1345466  )
        67           C   tau(  67) = (   0.8331523   0.2873700   0.1342340  )
        68           C   tau(  68) = (   0.8332832   0.3834033   0.1342281  )
        69           C   tau(  69) = (   0.7498854   0.4316232   0.1339539  )
        70           C   tau(  70) = (   0.7500070   0.5277278   0.1340545  )
        71           C   tau(  71) = (   0.6665174   0.5758590   0.1338703  )
        72           C   tau(  72) = (   0.6666225   0.6720865   0.1340202  )
        73           C   tau(  73) = (   0.5832700   0.7201892   0.1339688  )
        74           C   tau(  74) = (   0.5833895   0.8163034   0.1342582  )
        75           C   tau(  75) = (   0.4998568   0.8644873   0.1345613  )
        76           C   tau(  76) = (   0.5000121   0.9605838   0.1348902  )
        77           C   tau(  77) = (   0.4165334   1.0088362   0.1349293  )
        78           C   tau(  78) = (   0.4166523   1.1049735   0.1349034  )
        79           C   tau(  79) = (   0.9165729   0.4316334   0.1346321  )
        80           C   tau(  80) = (   0.9166987   0.5277115   0.1347158  )
        81           C   tau(  81) = (   0.8331517   0.5759438   0.1344797  )
        82           C   tau(  82) = (   0.8332853   0.6720108   0.1345507  )
        83           C   tau(  83) = (   0.7498134   0.7202254   0.1342832  )
        84           C   tau(  84) = (   0.7499148   0.8162944   0.1343802  )
        85           C   tau(  85) = (   0.6665162   0.8644001   0.1343710  )
        86           C   tau(  86) = (   0.6666832   0.9606627   0.1347013  )
        87           C   tau(  87) = (   0.5832491   1.0088081   0.1349158  )
        88           C   tau(  88) = (   0.5833672   1.1049654   0.1349159  )
        89           C   tau(  89) = (   0.9165429   0.7201986   0.1347543  )
        90           C   tau(  90) = (   0.9166559   0.8163269   0.1347325  )
        91           C   tau(  91) = (   0.8331812   0.8645134   0.1346143  )
        92           C   tau(  92) = (   0.8333409   0.9605717   0.1346612  )
        93           C   tau(  93) = (   0.7498000   1.0087939   0.1347376  )
        94           C   tau(  94) = (   0.7499574   1.1049755   0.1347025  )
        95           C   tau(  95) = (   0.9165610   1.0088035   0.1345868  )
        96           C   tau(  96) = (   0.9167139   1.1049895   0.1345585  )
        97           C   tau(  97) = (   0.3945975   0.6537252   0.3683831  )
        98           C   tau(  98) = (   0.3076827   0.5318729   0.3686311  )
        99           C   tau(  99) = (   0.3033475   0.6844362   0.3688418  )
       100           C   tau( 100) = (   0.2492151   0.6082099   0.3689313  )
       101           C   tau( 101) = (   0.2657401   0.7688345   0.3702486  )
       102           C   tau( 102) = (   0.1571940   0.6147251   0.3704787  )
       103           C   tau( 103) = (   0.5487957   0.6801166   0.3704266  )
       104           C   tau( 104) = (   0.3310065   0.3773220   0.3707169  )
       105           C   tau( 105) = (   0.7011672   0.6840755   0.3733297  )
       106           C   tau( 106) = (   0.6249684   0.7385914   0.3729932  )
       107           C   tau( 107) = (   0.6699327   0.5929849   0.3708590  )
       108           C   tau( 108) = (   0.7857658   0.7211439   0.3756736  )
       109           C   tau( 109) = (   0.6323412   0.8306448   0.3749399  )
       110           C   tau( 110) = (   0.3754014   0.2315237   0.3728662  )
       111           C   tau( 111) = (   0.2994112   0.2863618   0.3732976  )
       112           C   tau( 112) = (   0.4515920   0.2902260   0.3702034  )
       113           C   tau( 113) = (   0.3677610   0.1394952   0.3747310  )
       114           C   tau( 114) = (   0.2147004   0.2496187   0.3757522  )
       115           C   tau( 115) = (   0.6934077   0.4383830   0.3687520  )
       116           C   tau( 116) = (   0.6966498   0.2858885   0.3688890  )
       117           C   tau( 117) = (   0.7514517   0.3615662   0.3691555  )
       118           C   tau( 118) = (   0.6056884   0.3170955   0.3682616  )
       119           C   tau( 119) = (   0.7331829   0.2010880   0.3704292  )
       120           C   tau( 120) = (   0.8434113   0.3537465   0.3709559  )
       121           C   tau( 121) = (   0.1200326   0.6992043   0.3717726  )
       122           C   tau( 122) = (   0.1736792   0.7751417   0.3716273  )
       123           C   tau( 123) = (   0.2829500   0.1032536   0.3770127  )
       124           C   tau( 124) = (   0.2074380   0.1576207   0.3775681  )
       125           C   tau( 125) = (   0.8796260   0.2688834   0.3723800  )
       126           C   tau( 126) = (   0.8251116   0.1935987   0.3721246  )
       127           C   tau( 127) = (   0.7169801   0.8671829   0.3772542  )
       128           C   tau( 128) = (   0.7926963   0.8131761   0.3776299  )
       129           Zn  tau( 129) = (   0.5015437   0.4863294   0.3696284  )
       130           N   tau( 130) = (   0.3945697   0.5615871   0.3682067  )
       131           N   tau( 131) = (   0.4647915   0.7066288   0.3694346  )
       132           N   tau( 132) = (   0.2791242   0.4486253   0.3699267  )
       133           N   tau( 133) = (   0.5785562   0.5935224   0.3695044  )
       134           N   tau( 134) = (   0.7217812   0.5216113   0.3701432  )
       135           N   tau( 135) = (   0.4222333   0.3768458   0.3692662  )
       136           N   tau( 136) = (   0.5356133   0.2641421   0.3691952  )
       137           N   tau( 137) = (   0.6063126   0.4092025   0.3681575  )
       138           H   tau( 138) = (   0.1553931   0.2932584   0.3763160  )
       139           H   tau( 139) = (   0.4281480   0.0972561   0.3743977  )
       140           H   tau( 140) = (   0.6894332   0.1418245   0.3705367  )
       141           H   tau( 141) = (   0.8856399   0.4140415   0.3714265  )
       142           H   tau( 142) = (   0.8451800   0.6775913   0.3760848  )
       143           H   tau( 143) = (   0.5719588   0.8728350   0.3746779  )
       144           H   tau( 144) = (   0.3086869   0.8286795   0.3704768  )
       145           H   tau( 145) = (   0.1158745   0.5537701   0.3708789  )
       146           H   tau( 146) = (   0.1408045   0.1262408   0.3793525  )
       147           H   tau( 147) = (   0.2747463   0.0300705   0.3782909  )
       148           H   tau( 148) = (   0.8559177   0.1267388   0.3732931  )
       149           H   tau( 149) = (   0.9527380   0.2604542   0.3737187  )
       150           H   tau( 150) = (   0.8592597   0.8446386   0.3794125  )
       151           H   tau( 151) = (   0.7250765   0.9404135   0.3786843  )
       152           H   tau( 152) = (   0.1418900   0.8415881   0.3726765  )
       153           H   tau( 153) = (   0.0468185   0.7066934   0.3728979  )

     number of k points=     5
                       cart. coord. in units 2pi/alat
        k(    1) = (   0.1666667   0.1443662  -0.3690000), wk =   0.4444444
        k(    2) = (   0.1666667  -0.4330986  -0.3690000), wk =   0.4444444
        k(    3) = (  -0.5000000   0.1443662  -0.3690000), wk =   0.4444444
        k(    4) = (  -0.5000000  -0.4330986  -0.3690000), wk =   0.2222222
        k(    5) = (  -0.1666667   0.1443662   0.3690000), wk =   0.4444444

     Dense  grid:  2131249 G-vectors     FFT dimensions: ( 144, 160, 192)

     Occupations read from input 

        2.0000   2.0000   2.0000   2.0000   2.0000   2.0000   2.0000   2.0000
        2.0000   2.0000   2.0000   2.0000   2.0000   2.0000   2.0000   2.0000
        2.0000   2.0000   2.0000   2.0000   2.0000   2.0000   2.0000   2.0000
        2.0000   2.0000   2.0000   2.0000   2.0000   2.0000   2.0000   2.0000
        2.0000   2.0000   2.0000   2.0000   2.0000   2.0000   2.0000   2.0000
        2.0000   2.0000   2.0000   2.0000   2.0000   2.0000   2.0000   2.0000
        2.0000   2.0000   2.0000   2.0000   2.0000   2.0000   2.0000   2.0000
        2.0000   2.0000   2.0000   2.0000   2.0000   2.0000   2.0000   2.0000
        2.0000   2.0000   2.0000   2.0000   2.0000   2.0000   2.0000   2.0000
        2.0000   2.0000   2.0000   2.0000   2.0000   2.0000   2.0000   2.0000
        2.0000   2.0000   2.0000   2.0000   2.0000   2.0000   2.0000   2.0000
        2.0000   2.0000   2.0000   2.0000   2.0000   2.0000   2.0000   2.0000
        2.0000   2.0000   2.0000   2.0000   2.0000   2.0000   2.0000   2.0000
        2.0000   2.0000   2.0000   2.0000   2.0000   2.0000   2.0000   2.0000
        2.0000   2.0000   2.0000   2.0000   2.0000   2.0000   2.0000   2.0000
        2.0000   2.0000   2.0000   2.0000   2.0000   2.0000   2.0000   2.0000
        2.0000   2.0000   2.0000   2.0000   2.0000   2.0000   2.0000   2.0000
        2.0000   2.0000   2.0000   2.0000   2.0000   2.0000   2.0000   2.0000
        2.0000   2.0000   2.0000   2.0000   2.0000   2.0000   2.0000   2.0000
        2.0000   2.0000   2.0000   2.0000   2.0000   2.0000   2.0000   2.0000
        2.0000   2.0000   2.0000   2.0000   2.0000   2.0000   2.0000   2.0000
        2.0000   2.0000   2.0000   2.0000   2.0000   2.0000   2.0000   2.0000
        2.0000   2.0000   2.0000   2.0000   2.0000   2.0000   2.0000   2.0000
        2.0000   2.0000   2.0000   2.0000   2.0000   2.0000   2.0000   2.0000
        2.0000   2.0000   2.0000   2.0000   2.0000   2.0000   2.0000   2.0000
        2.0000   2.0000   2.0000   2.0000   2.0000   2.0000   2.0000   2.0000
        2.0000   2.0000   2.0000   2.0000   2.0000   2.0000   2.0000   2.0000
        2.0000   2.0000   2.0000   2.0000   2.0000   2.0000   2.0000   2.0000
        2.0000   2.0000   2.0000   2.0000   2.0000   2.0000   2.0000   2.0000
        2.0000   2.0000   2.0000   2.0000   2.0000   2.0000   2.0000   2.0000
        2.0000   2.0000   2.0000   2.0000   2.0000   2.0000   2.0000   2.0000
        2.0000   2.0000   2.0000   2.0000   2.0000   2.0000   2.0000   2.0000
        2.0000   2.0000   2.0000   2.0000   2.0000   2.0000   2.0000   2.0000
        2.0000   2.0000   2.0000   2.0000   2.0000   2.0000   2.0000   2.0000
        2.0000   2.0000   2.0000   2.0000   2.0000   2.0000   2.0000   2.0000
        2.0000   2.0000   2.0000   2.0000   2.0000   2.0000   2.0000   1.0000
        2.0000   2.0000   0.0000   0.0000   1.0000   0.0000   0.0000   0.0000
        0.0000   0.0000   0.0000   0.0000   0.0000   0.0000   0.0000   0.0000
        0.0000   0.0000   0.0000   0.0000   0.0000   0.0000   0.0000   0.0000
        0.0000   0.0000   0.0000   0.0000   0.0000   0.0000   0.0000   0.0000

     Largest allocated arrays     est. size (Mb)     dimensions
        Kohn-Sham Wavefunctions        20.33 Mb     (    4164,  320)
        Atomic Hubbard wavefuncts      26.24 Mb     (    4164,  413)
        NL pseudopotentials             9.53 Mb     (    4164,  150)
        Each V/rho on FFT grid          1.05 Mb     (   69120)
        Each G-vector array             0.25 Mb     (   33304)
        G-vector shells                 0.13 Mb     (   16516)
     Largest temporary arrays     est. size (Mb)     dimensions
        Auxiliary wavefunctions        81.33 Mb     (    4164, 1280)
        Each subspace H/S matrix        1.00 Mb     (     256,  256)
        Each <psi_i|beta_j> matrix      0.73 Mb     (     150,  320)
        Arrays for rho mixing           8.44 Mb     (   69120,    8)

     Initial potential from superposition of free atoms
     Check: negative starting charge=   -0.407506

     starting charge  578.99444, renormalised to  580.00000

     negative rho (up, down):  4.082E-01 0.000E+00
     Number of +U iterations with fixed ns =  0
     Starting occupations:
 --- enter write_ns ---
 LDA+U parameters:
U( 1)     =  7.00000000
alpha( 1) =  0.00000000
U( 2)     =  5.50000000
alpha( 2) =  0.00000000
U( 3)     =  5.50000000
alpha( 3) =  0.00000000
atom    1   Tr[ns(na)] =   2.00000
    eigenvalues: 
  0.333  0.333  0.333
    eigenvectors:
  1.000  0.000  0.000
  0.000  1.000  0.000
  0.000  0.000  1.000
    occupations:
  0.333  0.000  0.000
  0.000  0.333  0.000
  0.000  0.000  0.333
atom    2   Tr[ns(na)] =   2.00000
    eigenvalues: 
  0.333  0.333  0.333
    eigenvectors:
  1.000  0.000  0.000
  0.000  1.000  0.000
  0.000  0.000  1.000
    occupations:
  0.333  0.000  0.000
  0.000  0.333  0.000
  0.000  0.000  0.333
atom    3   Tr[ns(na)] =   2.00000
    eigenvalues: 
  0.333  0.333  0.333
    eigenvectors:
  1.000  0.000  0.000
  0.000  1.000  0.000
  0.000  0.000  1.000
    occupations:
  0.333  0.000  0.000
  0.000  0.333  0.000
  0.000  0.000  0.333
atom    4   Tr[ns(na)] =   2.00000
    eigenvalues: 
  0.333  0.333  0.333
    eigenvectors:
  1.000  0.000  0.000
  0.000  1.000  0.000
  0.000  0.000  1.000
    occupations:
  0.333  0.000  0.000
  0.000  0.333  0.000
  0.000  0.000  0.333
atom    5   Tr[ns(na)] =   2.00000
    eigenvalues: 
  0.333  0.333  0.333
    eigenvectors:
  1.000  0.000  0.000
  0.000  1.000  0.000
  0.000  0.000  1.000
    occupations:
  0.333  0.000  0.000
  0.000  0.333  0.000
  0.000  0.000  0.333
atom    6   Tr[ns(na)] =   2.00000
    eigenvalues: 
  0.333  0.333  0.333
    eigenvectors:
  1.000  0.000  0.000
  0.000  1.000  0.000
  0.000  0.000  1.000
    occupations:
  0.333  0.000  0.000
  0.000  0.333  0.000
  0.000  0.000  0.333
atom    7   Tr[ns(na)] =   2.00000
    eigenvalues: 
  0.333  0.333  0.333
    eigenvectors:
  1.000  0.000  0.000
  0.000  1.000  0.000
  0.000  0.000  1.000
    occupations:
  0.333  0.000  0.000
  0.000  0.333  0.000
  0.000  0.000  0.333
atom    8   Tr[ns(na)] =   2.00000
    eigenvalues: 
  0.333  0.333  0.333
    eigenvectors:
  1.000  0.000  0.000
  0.000  1.000  0.000
  0.000  0.000  1.000
    occupations:
  0.333  0.000  0.000
  0.000  0.333  0.000
  0.000  0.000  0.333
atom    9   Tr[ns(na)] =   2.00000
    eigenvalues: 
  0.333  0.333  0.333
    eigenvectors:
  1.000  0.000  0.000
  0.000  1.000  0.000
  0.000  0.000  1.000
    occupations:
  0.333  0.000  0.000
  0.000  0.333  0.000
  0.000  0.000  0.333
atom   10   Tr[ns(na)] =   2.00000
    eigenvalues: 
  0.333  0.333  0.333
    eigenvectors:
  1.000  0.000  0.000
  0.000  1.000  0.000
  0.000  0.000  1.000
    occupations:
  0.333  0.000  0.000
  0.000  0.333  0.000
  0.000  0.000  0.333
atom   11   Tr[ns(na)] =   2.00000
    eigenvalues: 
  0.333  0.333  0.333
    eigenvectors:
  1.000  0.000  0.000
  0.000  1.000  0.000
  0.000  0.000  1.000
    occupations:
  0.333  0.000  0.000
  0.000  0.333  0.000
  0.000  0.000  0.333
atom   12   Tr[ns(na)] =   2.00000
    eigenvalues: 
  0.333  0.333  0.333
    eigenvectors:
  1.000  0.000  0.000
  0.000  1.000  0.000
  0.000  0.000  1.000
    occupations:
  0.333  0.000  0.000
  0.000  0.333  0.000
  0.000  0.000  0.333
atom   13   Tr[ns(na)] =   2.00000
    eigenvalues: 
  0.333  0.333  0.333
    eigenvectors:
  1.000  0.000  0.000
  0.000  1.000  0.000
  0.000  0.000  1.000
    occupations:
  0.333  0.000  0.000
  0.000  0.333  0.000
  0.000  0.000  0.333
atom   14   Tr[ns(na)] =   2.00000
    eigenvalues: 
  0.333  0.333  0.333
    eigenvectors:
  1.000  0.000  0.000
  0.000  1.000  0.000
  0.000  0.000  1.000
    occupations:
  0.333  0.000  0.000
  0.000  0.333  0.000
  0.000  0.000  0.333
atom   15   Tr[ns(na)] =   2.00000
    eigenvalues: 
  0.333  0.333  0.333
    eigenvectors:
  1.000  0.000  0.000
  0.000  1.000  0.000
  0.000  0.000  1.000
    occupations:
  0.333  0.000  0.000
  0.000  0.333  0.000
  0.000  0.000  0.333
atom   16   Tr[ns(na)] =   2.00000
    eigenvalues: 
  0.333  0.333  0.333
    eigenvectors:
  1.000  0.000  0.000
  0.000  1.000  0.000
  0.000  0.000  1.000
    occupations:
  0.333  0.000  0.000
  0.000  0.333  0.000
  0.000  0.000  0.333
atom   17   Tr[ns(na)] =   2.00000
    eigenvalues: 
  0.333  0.333  0.333
    eigenvectors:
  1.000  0.000  0.000
  0.000  1.000  0.000
  0.000  0.000  1.000
    occupations:
  0.333  0.000  0.000
  0.000  0.333  0.000
  0.000  0.000  0.333
atom   18   Tr[ns(na)] =   2.00000
    eigenvalues: 
  0.333  0.333  0.333
    eigenvectors:
  1.000  0.000  0.000
  0.000  1.000  0.000
  0.000  0.000  1.000
    occupations:
  0.333  0.000  0.000
  0.000  0.333  0.000
  0.000  0.000  0.333
atom   19   Tr[ns(na)] =   2.00000
    eigenvalues: 
  0.333  0.333  0.333
    eigenvectors:
  1.000  0.000  0.000
  0.000  1.000  0.000
  0.000  0.000  1.000
    occupations:
  0.333  0.000  0.000
  0.000  0.333  0.000
  0.000  0.000  0.333
atom   20   Tr[ns(na)] =   2.00000
    eigenvalues: 
  0.333  0.333  0.333
    eigenvectors:
  1.000  0.000  0.000
  0.000  1.000  0.000
  0.000  0.000  1.000
    occupations:
  0.333  0.000  0.000
  0.000  0.333  0.000
  0.000  0.000  0.333
atom   21   Tr[ns(na)] =   2.00000
    eigenvalues: 
  0.333  0.333  0.333
    eigenvectors:
  1.000  0.000  0.000
  0.000  1.000  0.000
  0.000  0.000  1.000
    occupations:
  0.333  0.000  0.000
  0.000  0.333  0.000
  0.000  0.000  0.333
atom   22   Tr[ns(na)] =   2.00000
    eigenvalues: 
  0.333  0.333  0.333
    eigenvectors:
  1.000  0.000  0.000
  0.000  1.000  0.000
  0.000  0.000  1.000
    occupations:
  0.333  0.000  0.000
  0.000  0.333  0.000
  0.000  0.000  0.333
atom   23   Tr[ns(na)] =   2.00000
    eigenvalues: 
  0.333  0.333  0.333
    eigenvectors:
  1.000  0.000  0.000
  0.000  1.000  0.000
  0.000  0.000  1.000
    occupations:
  0.333  0.000  0.000
  0.000  0.333  0.000
  0.000  0.000  0.333
atom   24   Tr[ns(na)] =   2.00000
    eigenvalues: 
  0.333  0.333  0.333
    eigenvectors:
  1.000  0.000  0.000
  0.000  1.000  0.000
  0.000  0.000  1.000
    occupations:
  0.333  0.000  0.000
  0.000  0.333  0.000
  0.000  0.000  0.333
atom   25   Tr[ns(na)] =   2.00000
    eigenvalues: 
  0.333  0.333  0.333
    eigenvectors:
  1.000  0.000  0.000
  0.000  1.000  0.000
  0.000  0.000  1.000
    occupations:
  0.333  0.000  0.000
  0.000  0.333  0.000
  0.000  0.000  0.333
atom   26   Tr[ns(na)] =   2.00000
    eigenvalues: 
  0.333  0.333  0.333
    eigenvectors:
  1.000  0.000  0.000
  0.000  1.000  0.000
  0.000  0.000  1.000
    occupations:
  0.333  0.000  0.000
  0.000  0.333  0.000
  0.000  0.000  0.333
atom   27   Tr[ns(na)] =   2.00000
    eigenvalues: 
  0.333  0.333  0.333
    eigenvectors:
  1.000  0.000  0.000
  0.000  1.000  0.000
  0.000  0.000  1.000
    occupations:
  0.333  0.000  0.000
  0.000  0.333  0.000
  0.000  0.000  0.333
atom   28   Tr[ns(na)] =   2.00000
    eigenvalues: 
  0.333  0.333  0.333
    eigenvectors:
  1.000  0.000  0.000
  0.000  1.000  0.000
  0.000  0.000  1.000
    occupations:
  0.333  0.000  0.000
  0.000  0.333  0.000
  0.000  0.000  0.333
atom   29   Tr[ns(na)] =   2.00000
    eigenvalues: 
  0.333  0.333  0.333
    eigenvectors:
  1.000  0.000  0.000
  0.000  1.000  0.000
  0.000  0.000  1.000
    occupations:
  0.333  0.000  0.000
  0.000  0.333  0.000
  0.000  0.000  0.333
atom   30   Tr[ns(na)] =   2.00000
    eigenvalues: 
  0.333  0.333  0.333
    eigenvectors:
  1.000  0.000  0.000
  0.000  1.000  0.000
  0.000  0.000  1.000
    occupations:
  0.333  0.000  0.000
  0.000  0.333  0.000
  0.000  0.000  0.333
atom   31   Tr[ns(na)] =   2.00000
    eigenvalues: 
  0.333  0.333  0.333
    eigenvectors:
  1.000  0.000  0.000
  0.000  1.000  0.000
  0.000  0.000  1.000
    occupations:
  0.333  0.000  0.000
  0.000  0.333  0.000
  0.000  0.000  0.333
atom   32   Tr[ns(na)] =   2.00000
    eigenvalues: 
  0.333  0.333  0.333
    eigenvectors:
  1.000  0.000  0.000
  0.000  1.000  0.000
  0.000  0.000  1.000
    occupations:
  0.333  0.000  0.000
  0.000  0.333  0.000
  0.000  0.000  0.333
atom   33   Tr[ns(na)] =   2.00000
    eigenvalues: 
  0.333  0.333  0.333
    eigenvectors:
  1.000  0.000  0.000
  0.000  1.000  0.000
  0.000  0.000  1.000
    occupations:
  0.333  0.000  0.000
  0.000  0.333  0.000
  0.000  0.000  0.333
atom   34   Tr[ns(na)] =   2.00000
    eigenvalues: 
  0.333  0.333  0.333
    eigenvectors:
  1.000  0.000  0.000
  0.000  1.000  0.000
  0.000  0.000  1.000
    occupations:
  0.333  0.000  0.000
  0.000  0.333  0.000
  0.000  0.000  0.333
atom   35   Tr[ns(na)] =   2.00000
    eigenvalues: 
  0.333  0.333  0.333
    eigenvectors:
  1.000  0.000  0.000
  0.000  1.000  0.000
  0.000  0.000  1.000
    occupations:
  0.333  0.000  0.000
  0.000  0.333  0.000
  0.000  0.000  0.333
atom   36   Tr[ns(na)] =   2.00000
    eigenvalues: 
  0.333  0.333  0.333
    eigenvectors:
  1.000  0.000  0.000
  0.000  1.000  0.000
  0.000  0.000  1.000
    occupations:
  0.333  0.000  0.000
  0.000  0.333  0.000
  0.000  0.000  0.333
atom   37   Tr[ns(na)] =   2.00000
    eigenvalues: 
  0.333  0.333  0.333
    eigenvectors:
  1.000  0.000  0.000
  0.000  1.000  0.000
  0.000  0.000  1.000
    occupations:
  0.333  0.000  0.000
  0.000  0.333  0.000
  0.000  0.000  0.333
atom   38   Tr[ns(na)] =   2.00000
    eigenvalues: 
  0.333  0.333  0.333
    eigenvectors:
  1.000  0.000  0.000
  0.000  1.000  0.000
  0.000  0.000  1.000
    occupations:
  0.333  0.000  0.000
  0.000  0.333  0.000
  0.000  0.000  0.333
atom   39   Tr[ns(na)] =   2.00000
    eigenvalues: 
  0.333  0.333  0.333
    eigenvectors:
  1.000  0.000  0.000
  0.000  1.000  0.000
  0.000  0.000  1.000
    occupations:
  0.333  0.000  0.000
  0.000  0.333  0.000
  0.000  0.000  0.333
atom   40   Tr[ns(na)] =   2.00000
    eigenvalues: 
  0.333  0.333  0.333
    eigenvectors:
  1.000  0.000  0.000
  0.000  1.000  0.000
  0.000  0.000  1.000
    occupations:
  0.333  0.000  0.000
  0.000  0.333  0.000
  0.000  0.000  0.333
atom   41   Tr[ns(na)] =   2.00000
    eigenvalues: 
  0.333  0.333  0.333
    eigenvectors:
  1.000  0.000  0.000
  0.000  1.000  0.000
  0.000  0.000  1.000
    occupations:
  0.333  0.000  0.000
  0.000  0.333  0.000
  0.000  0.000  0.333
atom   42   Tr[ns(na)] =   2.00000
    eigenvalues: 
  0.333  0.333  0.333
    eigenvectors:
  1.000  0.000  0.000
  0.000  1.000  0.000
  0.000  0.000  1.000
    occupations:
  0.333  0.000  0.000
  0.000  0.333  0.000
  0.000  0.000  0.333
atom   43   Tr[ns(na)] =   2.00000
    eigenvalues: 
  0.333  0.333  0.333
    eigenvectors:
  1.000  0.000  0.000
  0.000  1.000  0.000
  0.000  0.000  1.000
    occupations:
  0.333  0.000  0.000
  0.000  0.333  0.000
  0.000  0.000  0.333
atom   44   Tr[ns(na)] =   2.00000
    eigenvalues: 
  0.333  0.333  0.333
    eigenvectors:
  1.000  0.000  0.000
  0.000  1.000  0.000
  0.000  0.000  1.000
    occupations:
  0.333  0.000  0.000
  0.000  0.333  0.000
  0.000  0.000  0.333
atom   45   Tr[ns(na)] =   2.00000
    eigenvalues: 
  0.333  0.333  0.333
    eigenvectors:
  1.000  0.000  0.000
  0.000  1.000  0.000
  0.000  0.000  1.000
    occupations:
  0.333  0.000  0.000
  0.000  0.333  0.000
  0.000  0.000  0.333
atom   46   Tr[ns(na)] =   2.00000
    eigenvalues: 
  0.333  0.333  0.333
    eigenvectors:
  1.000  0.000  0.000
  0.000  1.000  0.000
  0.000  0.000  1.000
    occupations:
  0.333  0.000  0.000
  0.000  0.333  0.000
  0.000  0.000  0.333
atom   47   Tr[ns(na)] =   2.00000
    eigenvalues: 
  0.333  0.333  0.333
    eigenvectors:
  1.000  0.000  0.000
  0.000  1.000  0.000
  0.000  0.000  1.000
    occupations:
  0.333  0.000  0.000
  0.000  0.333  0.000
  0.000  0.000  0.333
atom   48   Tr[ns(na)] =   2.00000
    eigenvalues: 
  0.333  0.333  0.333
    eigenvectors:
  1.000  0.000  0.000
  0.000  1.000  0.000
  0.000  0.000  1.000
    occupations:
  0.333  0.000  0.000
  0.000  0.333  0.000
  0.000  0.000  0.333
atom   49   Tr[ns(na)] =   2.00000
    eigenvalues: 
  0.333  0.333  0.333
    eigenvectors:
  1.000  0.000  0.000
  0.000  1.000  0.000
  0.000  0.000  1.000
    occupations:
  0.333  0.000  0.000
  0.000  0.333  0.000
  0.000  0.000  0.333
atom   50   Tr[ns(na)] =   2.00000
    eigenvalues: 
  0.333  0.333  0.333
    eigenvectors:
  1.000  0.000  0.000
  0.000  1.000  0.000
  0.000  0.000  1.000
    occupations:
  0.333  0.000  0.000
  0.000  0.333  0.000
  0.000  0.000  0.333
atom   51   Tr[ns(na)] =   2.00000
    eigenvalues: 
  0.333  0.333  0.333
    eigenvectors:
  1.000  0.000  0.000
  0.000  1.000  0.000
  0.000  0.000  1.000
    occupations:
  0.333  0.000  0.000
  0.000  0.333  0.000
  0.000  0.000  0.333
atom   52   Tr[ns(na)] =   2.00000
    eigenvalues: 
  0.333  0.333  0.333
    eigenvectors:
  1.000  0.000  0.000
  0.000  1.000  0.000
  0.000  0.000  1.000
    occupations:
  0.333  0.000  0.000
  0.000  0.333  0.000
  0.000  0.000  0.333
atom   53   Tr[ns(na)] =   2.00000
    eigenvalues: 
  0.333  0.333  0.333
    eigenvectors:
  1.000  0.000  0.000
  0.000  1.000  0.000
  0.000  0.000  1.000
    occupations:
  0.333  0.000  0.000
  0.000  0.333  0.000
  0.000  0.000  0.333
atom   54   Tr[ns(na)] =   2.00000
    eigenvalues: 
  0.333  0.333  0.333
    eigenvectors:
  1.000  0.000  0.000
  0.000  1.000  0.000
  0.000  0.000  1.000
    occupations:
  0.333  0.000  0.000
  0.000  0.333  0.000
  0.000  0.000  0.333
atom   55   Tr[ns(na)] =   2.00000
    eigenvalues: 
  0.333  0.333  0.333
    eigenvectors:
  1.000  0.000  0.000
  0.000  1.000  0.000
  0.000  0.000  1.000
    occupations:
  0.333  0.000  0.000
  0.000  0.333  0.000
  0.000  0.000  0.333
atom   56   Tr[ns(na)] =   2.00000
    eigenvalues: 
  0.333  0.333  0.333
    eigenvectors:
  1.000  0.000  0.000
  0.000  1.000  0.000
  0.000  0.000  1.000
    occupations:
  0.333  0.000  0.000
  0.000  0.333  0.000
  0.000  0.000  0.333
atom   57   Tr[ns(na)] =   2.00000
    eigenvalues: 
  0.333  0.333  0.333
    eigenvectors:
  1.000  0.000  0.000
  0.000  1.000  0.000
  0.000  0.000  1.000
    occupations:
  0.333  0.000  0.000
  0.000  0.333  0.000
  0.000  0.000  0.333
atom   58   Tr[ns(na)] =   2.00000
    eigenvalues: 
  0.333  0.333  0.333
    eigenvectors:
  1.000  0.000  0.000
  0.000  1.000  0.000
  0.000  0.000  1.000
    occupations:
  0.333  0.000  0.000
  0.000  0.333  0.000
  0.000  0.000  0.333
atom   59   Tr[ns(na)] =   2.00000
    eigenvalues: 
  0.333  0.333  0.333
    eigenvectors:
  1.000  0.000  0.000
  0.000  1.000  0.000
  0.000  0.000  1.000
    occupations:
  0.333  0.000  0.000
  0.000  0.333  0.000
  0.000  0.000  0.333
atom   60   Tr[ns(na)] =   2.00000
    eigenvalues: 
  0.333  0.333  0.333
    eigenvectors:
  1.000  0.000  0.000
  0.000  1.000  0.000
  0.000  0.000  1.000
    occupations:
  0.333  0.000  0.000
  0.000  0.333  0.000
  0.000  0.000  0.333
atom   61   Tr[ns(na)] =   2.00000
    eigenvalues: 
  0.333  0.333  0.333
    eigenvectors:
  1.000  0.000  0.000
  0.000  1.000  0.000
  0.000  0.000  1.000
    occupations:
  0.333  0.000  0.000
  0.000  0.333  0.000
  0.000  0.000  0.333
atom   62   Tr[ns(na)] =   2.00000
    eigenvalues: 
  0.333  0.333  0.333
    eigenvectors:
  1.000  0.000  0.000
  0.000  1.000  0.000
  0.000  0.000  1.000
    occupations:
  0.333  0.000  0.000
  0.000  0.333  0.000
  0.000  0.000  0.333
atom   63   Tr[ns(na)] =   2.00000
    eigenvalues: 
  0.333  0.333  0.333
    eigenvectors:
  1.000  0.000  0.000
  0.000  1.000  0.000
  0.000  0.000  1.000
    occupations:
  0.333  0.000  0.000
  0.000  0.333  0.000
  0.000  0.000  0.333
atom   64   Tr[ns(na)] =   2.00000
    eigenvalues: 
  0.333  0.333  0.333
    eigenvectors:
  1.000  0.000  0.000
  0.000  1.000  0.000
  0.000  0.000  1.000
    occupations:
  0.333  0.000  0.000
  0.000  0.333  0.000
  0.000  0.000  0.333
atom   65   Tr[ns(na)] =   2.00000
    eigenvalues: 
  0.333  0.333  0.333
    eigenvectors:
  1.000  0.000  0.000
  0.000  1.000  0.000
  0.000  0.000  1.000
    occupations:
  0.333  0.000  0.000
  0.000  0.333  0.000
  0.000  0.000  0.333
atom   66   Tr[ns(na)] =   2.00000
    eigenvalues: 
  0.333  0.333  0.333
    eigenvectors:
  1.000  0.000  0.000
  0.000  1.000  0.000
  0.000  0.000  1.000
    occupations:
  0.333  0.000  0.000
  0.000  0.333  0.000
  0.000  0.000  0.333
atom   67   Tr[ns(na)] =   2.00000
    eigenvalues: 
  0.333  0.333  0.333
    eigenvectors:
  1.000  0.000  0.000
  0.000  1.000  0.000
  0.000  0.000  1.000
    occupations:
  0.333  0.000  0.000
  0.000  0.333  0.000
  0.000  0.000  0.333
atom   68   Tr[ns(na)] =   2.00000
    eigenvalues: 
  0.333  0.333  0.333
    eigenvectors:
  1.000  0.000  0.000
  0.000  1.000  0.000
  0.000  0.000  1.000
    occupations:
  0.333  0.000  0.000
  0.000  0.333  0.000
  0.000  0.000  0.333
atom   69   Tr[ns(na)] =   2.00000
    eigenvalues: 
  0.333  0.333  0.333
    eigenvectors:
  1.000  0.000  0.000
  0.000  1.000  0.000
  0.000  0.000  1.000
    occupations:
  0.333  0.000  0.000
  0.000  0.333  0.000
  0.000  0.000  0.333
atom   70   Tr[ns(na)] =   2.00000
    eigenvalues: 
  0.333  0.333  0.333
    eigenvectors:
  1.000  0.000  0.000
  0.000  1.000  0.000
  0.000  0.000  1.000
    occupations:
  0.333  0.000  0.000
  0.000  0.333  0.000
  0.000  0.000  0.333
atom   71   Tr[ns(na)] =   2.00000
    eigenvalues: 
  0.333  0.333  0.333
    eigenvectors:
  1.000  0.000  0.000
  0.000  1.000  0.000
  0.000  0.000  1.000
    occupations:
  0.333  0.000  0.000
  0.000  0.333  0.000
  0.000  0.000  0.333
atom   72   Tr[ns(na)] =   2.00000
    eigenvalues: 
  0.333  0.333  0.333
    eigenvectors:
  1.000  0.000  0.000
  0.000  1.000  0.000
  0.000  0.000  1.000
    occupations:
  0.333  0.000  0.000
  0.000  0.333  0.000
  0.000  0.000  0.333
atom   73   Tr[ns(na)] =   2.00000
    eigenvalues: 
  0.333  0.333  0.333
    eigenvectors:
  1.000  0.000  0.000
  0.000  1.000  0.000
  0.000  0.000  1.000
    occupations:
  0.333  0.000  0.000
  0.000  0.333  0.000
  0.000  0.000  0.333
atom   74   Tr[ns(na)] =   2.00000
    eigenvalues: 
  0.333  0.333  0.333
    eigenvectors:
  1.000  0.000  0.000
  0.000  1.000  0.000
  0.000  0.000  1.000
    occupations:
  0.333  0.000  0.000
  0.000  0.333  0.000
  0.000  0.000  0.333
atom   75   Tr[ns(na)] =   2.00000
    eigenvalues: 
  0.333  0.333  0.333
    eigenvectors:
  1.000  0.000  0.000
  0.000  1.000  0.000
  0.000  0.000  1.000
    occupations:
  0.333  0.000  0.000
  0.000  0.333  0.000
  0.000  0.000  0.333
atom   76   Tr[ns(na)] =   2.00000
    eigenvalues: 
  0.333  0.333  0.333
    eigenvectors:
  1.000  0.000  0.000
  0.000  1.000  0.000
  0.000  0.000  1.000
    occupations:
  0.333  0.000  0.000
  0.000  0.333  0.000
  0.000  0.000  0.333
atom   77   Tr[ns(na)] =   2.00000
    eigenvalues: 
  0.333  0.333  0.333
    eigenvectors:
  1.000  0.000  0.000
  0.000  1.000  0.000
  0.000  0.000  1.000
    occupations:
  0.333  0.000  0.000
  0.000  0.333  0.000
  0.000  0.000  0.333
atom   78   Tr[ns(na)] =   2.00000
    eigenvalues: 
  0.333  0.333  0.333
    eigenvectors:
  1.000  0.000  0.000
  0.000  1.000  0.000
  0.000  0.000  1.000
    occupations:
  0.333  0.000  0.000
  0.000  0.333  0.000
  0.000  0.000  0.333
atom   79   Tr[ns(na)] =   2.00000
    eigenvalues: 
  0.333  0.333  0.333
    eigenvectors:
  1.000  0.000  0.000
  0.000  1.000  0.000
  0.000  0.000  1.000
    occupations:
  0.333  0.000  0.000
  0.000  0.333  0.000
  0.000  0.000  0.333
atom   80   Tr[ns(na)] =   2.00000
    eigenvalues: 
  0.333  0.333  0.333
    eigenvectors:
  1.000  0.000  0.000
  0.000  1.000  0.000
  0.000  0.000  1.000
    occupations:
  0.333  0.000  0.000
  0.000  0.333  0.000
  0.000  0.000  0.333
atom   81   Tr[ns(na)] =   2.00000
    eigenvalues: 
  0.333  0.333  0.333
    eigenvectors:
  1.000  0.000  0.000
  0.000  1.000  0.000
  0.000  0.000  1.000
    occupations:
  0.333  0.000  0.000
  0.000  0.333  0.000
  0.000  0.000  0.333
atom   82   Tr[ns(na)] =   2.00000
    eigenvalues: 
  0.333  0.333  0.333
    eigenvectors:
  1.000  0.000  0.000
  0.000  1.000  0.000
  0.000  0.000  1.000
    occupations:
  0.333  0.000  0.000
  0.000  0.333  0.000
  0.000  0.000  0.333
atom   83   Tr[ns(na)] =   2.00000
    eigenvalues: 
  0.333  0.333  0.333
    eigenvectors:
  1.000  0.000  0.000
  0.000  1.000  0.000
  0.000  0.000  1.000
    occupations:
  0.333  0.000  0.000
  0.000  0.333  0.000
  0.000  0.000  0.333
atom   84   Tr[ns(na)] =   2.00000
    eigenvalues: 
  0.333  0.333  0.333
    eigenvectors:
  1.000  0.000  0.000
  0.000  1.000  0.000
  0.000  0.000  1.000
    occupations:
  0.333  0.000  0.000
  0.000  0.333  0.000
  0.000  0.000  0.333
atom   85   Tr[ns(na)] =   2.00000
    eigenvalues: 
  0.333  0.333  0.333
    eigenvectors:
  1.000  0.000  0.000
  0.000  1.000  0.000
  0.000  0.000  1.000
    occupations:
  0.333  0.000  0.000
  0.000  0.333  0.000
  0.000  0.000  0.333
atom   86   Tr[ns(na)] =   2.00000
    eigenvalues: 
  0.333  0.333  0.333
    eigenvectors:
  1.000  0.000  0.000
  0.000  1.000  0.000
  0.000  0.000  1.000
    occupations:
  0.333  0.000  0.000
  0.000  0.333  0.000
  0.000  0.000  0.333
atom   87   Tr[ns(na)] =   2.00000
    eigenvalues: 
  0.333  0.333  0.333
    eigenvectors:
  1.000  0.000  0.000
  0.000  1.000  0.000
  0.000  0.000  1.000
    occupations:
  0.333  0.000  0.000
  0.000  0.333  0.000
  0.000  0.000  0.333
atom   88   Tr[ns(na)] =   2.00000
    eigenvalues: 
  0.333  0.333  0.333
    eigenvectors:
  1.000  0.000  0.000
  0.000  1.000  0.000
  0.000  0.000  1.000
    occupations:
  0.333  0.000  0.000
  0.000  0.333  0.000
  0.000  0.000  0.333
atom   89   Tr[ns(na)] =   2.00000
    eigenvalues: 
  0.333  0.333  0.333
    eigenvectors:
  1.000  0.000  0.000
  0.000  1.000  0.000
  0.000  0.000  1.000
    occupations:
  0.333  0.000  0.000
  0.000  0.333  0.000
  0.000  0.000  0.333
atom   90   Tr[ns(na)] =   2.00000
    eigenvalues: 
  0.333  0.333  0.333
    eigenvectors:
  1.000  0.000  0.000
  0.000  1.000  0.000
  0.000  0.000  1.000
    occupations:
  0.333  0.000  0.000
  0.000  0.333  0.000
  0.000  0.000  0.333
atom   91   Tr[ns(na)] =   2.00000
    eigenvalues: 
  0.333  0.333  0.333
    eigenvectors:
  1.000  0.000  0.000
  0.000  1.000  0.000
  0.000  0.000  1.000
    occupations:
  0.333  0.000  0.000
  0.000  0.333  0.000
  0.000  0.000  0.333
atom   92   Tr[ns(na)] =   2.00000
    eigenvalues: 
  0.333  0.333  0.333
    eigenvectors:
  1.000  0.000  0.000
  0.000  1.000  0.000
  0.000  0.000  1.000
    occupations:
  0.333  0.000  0.000
  0.000  0.333  0.000
  0.000  0.000  0.333
atom   93   Tr[ns(na)] =   2.00000
    eigenvalues: 
  0.333  0.333  0.333
    eigenvectors:
  1.000  0.000  0.000
  0.000  1.000  0.000
  0.000  0.000  1.000
    occupations:
  0.333  0.000  0.000
  0.000  0.333  0.000
  0.000  0.000  0.333
atom   94   Tr[ns(na)] =   2.00000
    eigenvalues: 
  0.333  0.333  0.333
    eigenvectors:
  1.000  0.000  0.000
  0.000  1.000  0.000
  0.000  0.000  1.000
    occupations:
  0.333  0.000  0.000
  0.000  0.333  0.000
  0.000  0.000  0.333
atom   95   Tr[ns(na)] =   2.00000
    eigenvalues: 
  0.333  0.333  0.333
    eigenvectors:
  1.000  0.000  0.000
  0.000  1.000  0.000
  0.000  0.000  1.000
    occupations:
  0.333  0.000  0.000
  0.000  0.333  0.000
  0.000  0.000  0.333
atom   96   Tr[ns(na)] =   2.00000
    eigenvalues: 
  0.333  0.333  0.333
    eigenvectors:
  1.000  0.000  0.000
  0.000  1.000  0.000
  0.000  0.000  1.000
    occupations:
  0.333  0.000  0.000
  0.000  0.333  0.000
  0.000  0.000  0.333
atom   97   Tr[ns(na)] =   2.00000
    eigenvalues: 
  0.333  0.333  0.333
    eigenvectors:
  1.000  0.000  0.000
  0.000  1.000  0.000
  0.000  0.000  1.000
    occupations:
  0.333  0.000  0.000
  0.000  0.333  0.000
  0.000  0.000  0.333
atom   98   Tr[ns(na)] =   2.00000
    eigenvalues: 
  0.333  0.333  0.333
    eigenvectors:
  1.000  0.000  0.000
  0.000  1.000  0.000
  0.000  0.000  1.000
    occupations:
  0.333  0.000  0.000
  0.000  0.333  0.000
  0.000  0.000  0.333
atom   99   Tr[ns(na)] =   2.00000
    eigenvalues: 
  0.333  0.333  0.333
    eigenvectors:
  1.000  0.000  0.000
  0.000  1.000  0.000
  0.000  0.000  1.000
    occupations:
  0.333  0.000  0.000
  0.000  0.333  0.000
  0.000  0.000  0.333
atom  100   Tr[ns(na)] =   2.00000
    eigenvalues: 
  0.333  0.333  0.333
    eigenvectors:
  1.000  0.000  0.000
  0.000  1.000  0.000
  0.000  0.000  1.000
    occupations:
  0.333  0.000  0.000
  0.000  0.333  0.000
  0.000  0.000  0.333
atom  101   Tr[ns(na)] =   2.00000
    eigenvalues: 
  0.333  0.333  0.333
    eigenvectors:
  1.000  0.000  0.000
  0.000  1.000  0.000
  0.000  0.000  1.000
    occupations:
  0.333  0.000  0.000
  0.000  0.333  0.000
  0.000  0.000  0.333
atom  102   Tr[ns(na)] =   2.00000
    eigenvalues: 
  0.333  0.333  0.333
    eigenvectors:
  1.000  0.000  0.000
  0.000  1.000  0.000
  0.000  0.000  1.000
    occupations:
  0.333  0.000  0.000
  0.000  0.333  0.000
  0.000  0.000  0.333
atom  103   Tr[ns(na)] =   2.00000
    eigenvalues: 
  0.333  0.333  0.333
    eigenvectors:
  1.000  0.000  0.000
  0.000  1.000  0.000
  0.000  0.000  1.000
    occupations:
  0.333  0.000  0.000
  0.000  0.333  0.000
  0.000  0.000  0.333
atom  104   Tr[ns(na)] =   2.00000
    eigenvalues: 
  0.333  0.333  0.333
    eigenvectors:
  1.000  0.000  0.000
  0.000  1.000  0.000
  0.000  0.000  1.000
    occupations:
  0.333  0.000  0.000
  0.000  0.333  0.000
  0.000  0.000  0.333
atom  105   Tr[ns(na)] =   2.00000
    eigenvalues: 
  0.333  0.333  0.333
    eigenvectors:
  1.000  0.000  0.000
  0.000  1.000  0.000
  0.000  0.000  1.000
    occupations:
  0.333  0.000  0.000
  0.000  0.333  0.000
  0.000  0.000  0.333
atom  106   Tr[ns(na)] =   2.00000
    eigenvalues: 
  0.333  0.333  0.333
    eigenvectors:
  1.000  0.000  0.000
  0.000  1.000  0.000
  0.000  0.000  1.000
    occupations:
  0.333  0.000  0.000
  0.000  0.333  0.000
  0.000  0.000  0.333
atom  107   Tr[ns(na)] =   2.00000
    eigenvalues: 
  0.333  0.333  0.333
    eigenvectors:
  1.000  0.000  0.000
  0.000  1.000  0.000
  0.000  0.000  1.000
    occupations:
  0.333  0.000  0.000
  0.000  0.333  0.000
  0.000  0.000  0.333
atom  108   Tr[ns(na)] =   2.00000
    eigenvalues: 
  0.333  0.333  0.333
    eigenvectors:
  1.000  0.000  0.000
  0.000  1.000  0.000
  0.000  0.000  1.000
    occupations:
  0.333  0.000  0.000
  0.000  0.333  0.000
  0.000  0.000  0.333
atom  109   Tr[ns(na)] =   2.00000
    eigenvalues: 
  0.333  0.333  0.333
    eigenvectors:
  1.000  0.000  0.000
  0.000  1.000  0.000
  0.000  0.000  1.000
    occupations:
  0.333  0.000  0.000
  0.000  0.333  0.000
  0.000  0.000  0.333
atom  110   Tr[ns(na)] =   2.00000
    eigenvalues: 
  0.333  0.333  0.333
    eigenvectors:
  1.000  0.000  0.000
  0.000  1.000  0.000
  0.000  0.000  1.000
    occupations:
  0.333  0.000  0.000
  0.000  0.333  0.000
  0.000  0.000  0.333
atom  111   Tr[ns(na)] =   2.00000
    eigenvalues: 
  0.333  0.333  0.333
    eigenvectors:
  1.000  0.000  0.000
  0.000  1.000  0.000
  0.000  0.000  1.000
    occupations:
  0.333  0.000  0.000
  0.000  0.333  0.000
  0.000  0.000  0.333
atom  112   Tr[ns(na)] =   2.00000
    eigenvalues: 
  0.333  0.333  0.333
    eigenvectors:
  1.000  0.000  0.000
  0.000  1.000  0.000
  0.000  0.000  1.000
    occupations:
  0.333  0.000  0.000
  0.000  0.333  0.000
  0.000  0.000  0.333
atom  113   Tr[ns(na)] =   2.00000
    eigenvalues: 
  0.333  0.333  0.333
    eigenvectors:
  1.000  0.000  0.000
  0.000  1.000  0.000
  0.000  0.000  1.000
    occupations:
  0.333  0.000  0.000
  0.000  0.333  0.000
  0.000  0.000  0.333
atom  114   Tr[ns(na)] =   2.00000
    eigenvalues: 
  0.333  0.333  0.333
    eigenvectors:
  1.000  0.000  0.000
  0.000  1.000  0.000
  0.000  0.000  1.000
    occupations:
  0.333  0.000  0.000
  0.000  0.333  0.000
  0.000  0.000  0.333
atom  115   Tr[ns(na)] =   2.00000
    eigenvalues: 
  0.333  0.333  0.333
    eigenvectors:
  1.000  0.000  0.000
  0.000  1.000  0.000
  0.000  0.000  1.000
    occupations:
  0.333  0.000  0.000
  0.000  0.333  0.000
  0.000  0.000  0.333
atom  116   Tr[ns(na)] =   2.00000
    eigenvalues: 
  0.333  0.333  0.333
    eigenvectors:
  1.000  0.000  0.000
  0.000  1.000  0.000
  0.000  0.000  1.000
    occupations:
  0.333  0.000  0.000
  0.000  0.333  0.000
  0.000  0.000  0.333
atom  117   Tr[ns(na)] =   2.00000
    eigenvalues: 
  0.333  0.333  0.333
    eigenvectors:
  1.000  0.000  0.000
  0.000  1.000  0.000
  0.000  0.000  1.000
    occupations:
  0.333  0.000  0.000
  0.000  0.333  0.000
  0.000  0.000  0.333
atom  118   Tr[ns(na)] =   2.00000
    eigenvalues: 
  0.333  0.333  0.333
    eigenvectors:
  1.000  0.000  0.000
  0.000  1.000  0.000
  0.000  0.000  1.000
    occupations:
  0.333  0.000  0.000
  0.000  0.333  0.000
  0.000  0.000  0.333
atom  119   Tr[ns(na)] =   2.00000
    eigenvalues: 
  0.333  0.333  0.333
    eigenvectors:
  1.000  0.000  0.000
  0.000  1.000  0.000
  0.000  0.000  1.000
    occupations:
  0.333  0.000  0.000
  0.000  0.333  0.000
  0.000  0.000  0.333
atom  120   Tr[ns(na)] =   2.00000
    eigenvalues: 
  0.333  0.333  0.333
    eigenvectors:
  1.000  0.000  0.000
  0.000  1.000  0.000
  0.000  0.000  1.000
    occupations:
  0.333  0.000  0.000
  0.000  0.333  0.000
  0.000  0.000  0.333
atom  121   Tr[ns(na)] =   2.00000
    eigenvalues: 
  0.333  0.333  0.333
    eigenvectors:
  1.000  0.000  0.000
  0.000  1.000  0.000
  0.000  0.000  1.000
    occupations:
  0.333  0.000  0.000
  0.000  0.333  0.000
  0.000  0.000  0.333
atom  122   Tr[ns(na)] =   2.00000
    eigenvalues: 
  0.333  0.333  0.333
    eigenvectors:
  1.000  0.000  0.000
  0.000  1.000  0.000
  0.000  0.000  1.000
    occupations:
  0.333  0.000  0.000
  0.000  0.333  0.000
  0.000  0.000  0.333
atom  123   Tr[ns(na)] =   2.00000
    eigenvalues: 
  0.333  0.333  0.333
    eigenvectors:
  1.000  0.000  0.000
  0.000  1.000  0.000
  0.000  0.000  1.000
    occupations:
  0.333  0.000  0.000
  0.000  0.333  0.000
  0.000  0.000  0.333
atom  124   Tr[ns(na)] =   2.00000
    eigenvalues: 
  0.333  0.333  0.333
    eigenvectors:
  1.000  0.000  0.000
  0.000  1.000  0.000
  0.000  0.000  1.000
    occupations:
  0.333  0.000  0.000
  0.000  0.333  0.000
  0.000  0.000  0.333
atom  125   Tr[ns(na)] =   2.00000
    eigenvalues: 
  0.333  0.333  0.333
    eigenvectors:
  1.000  0.000  0.000
  0.000  1.000  0.000
  0.000  0.000  1.000
    occupations:
  0.333  0.000  0.000
  0.000  0.333  0.000
  0.000  0.000  0.333
atom  126   Tr[ns(na)] =   2.00000
    eigenvalues: 
  0.333  0.333  0.333
    eigenvectors:
  1.000  0.000  0.000
  0.000  1.000  0.000
  0.000  0.000  1.000
    occupations:
  0.333  0.000  0.000
  0.000  0.333  0.000
  0.000  0.000  0.333
atom  127   Tr[ns(na)] =   2.00000
    eigenvalues: 
  0.333  0.333  0.333
    eigenvectors:
  1.000  0.000  0.000
  0.000  1.000  0.000
  0.000  0.000  1.000
    occupations:
  0.333  0.000  0.000
  0.000  0.333  0.000
  0.000  0.000  0.333
atom  128   Tr[ns(na)] =   2.00000
    eigenvalues: 
  0.333  0.333  0.333
    eigenvectors:
  1.000  0.000  0.000
  0.000  1.000  0.000
  0.000  0.000  1.000
    occupations:
  0.333  0.000  0.000
  0.000  0.333  0.000
  0.000  0.000  0.333
atom  129   Tr[ns(na)] =  10.00000
    eigenvalues: 
  1.000  1.000  1.000  1.000  1.000
    eigenvectors:
  1.000  0.000  0.000  0.000  0.000
  0.000  1.000  0.000  0.000  0.000
  0.000  0.000  1.000  0.000  0.000
  0.000  0.000  0.000  1.000  0.000
  0.000  0.000  0.000  0.000  1.000
    occupations:
  1.000  0.000  0.000  0.000  0.000
  0.000  1.000  0.000  0.000  0.000
  0.000  0.000  1.000  0.000  0.000
  0.000  0.000  0.000  1.000  0.000
  0.000  0.000  0.000  0.000  1.000
atom  130   Tr[ns(na)] =   3.00000
    eigenvalues: 
  0.500  0.500  0.500
    eigenvectors:
  1.000  0.000  0.000
  0.000  1.000  0.000
  0.000  0.000  1.000
    occupations:
  0.500  0.000  0.000
  0.000  0.500  0.000
  0.000  0.000  0.500
atom  131   Tr[ns(na)] =   3.00000
    eigenvalues: 
  0.500  0.500  0.500
    eigenvectors:
  1.000  0.000  0.000
  0.000  1.000  0.000
  0.000  0.000  1.000
    occupations:
  0.500  0.000  0.000
  0.000  0.500  0.000
  0.000  0.000  0.500
atom  132   Tr[ns(na)] =   3.00000
    eigenvalues: 
  0.500  0.500  0.500
    eigenvectors:
  1.000  0.000  0.000
  0.000  1.000  0.000
  0.000  0.000  1.000
    occupations:
  0.500  0.000  0.000
  0.000  0.500  0.000
  0.000  0.000  0.500
atom  133   Tr[ns(na)] =   3.00000
    eigenvalues: 
  0.500  0.500  0.500
    eigenvectors:
  1.000  0.000  0.000
  0.000  1.000  0.000
  0.000  0.000  1.000
    occupations:
  0.500  0.000  0.000
  0.000  0.500  0.000
  0.000  0.000  0.500
atom  134   Tr[ns(na)] =   3.00000
    eigenvalues: 
  0.500  0.500  0.500
    eigenvectors:
  1.000  0.000  0.000
  0.000  1.000  0.000
  0.000  0.000  1.000
    occupations:
  0.500  0.000  0.000
  0.000  0.500  0.000
  0.000  0.000  0.500
atom  135   Tr[ns(na)] =   3.00000
    eigenvalues: 
  0.500  0.500  0.500
    eigenvectors:
  1.000  0.000  0.000
  0.000  1.000  0.000
  0.000  0.000  1.000
    occupations:
  0.500  0.000  0.000
  0.000  0.500  0.000
  0.000  0.000  0.500
atom  136   Tr[ns(na)] =   3.00000
    eigenvalues: 
  0.500  0.500  0.500
    eigenvectors:
  1.000  0.000  0.000
  0.000  1.000  0.000
  0.000  0.000  1.000
    occupations:
  0.500  0.000  0.000
  0.000  0.500  0.000
  0.000  0.000  0.500
atom  137   Tr[ns(na)] =   3.00000
    eigenvalues: 
  0.500  0.500  0.500
    eigenvectors:
  1.000  0.000  0.000
  0.000  1.000  0.000
  0.000  0.000  1.000
    occupations:
  0.500  0.000  0.000
  0.000  0.500  0.000
  0.000  0.000  0.500
N of occupied +U levels =  290.000000
 --- exit write_ns ---
 Atomic wfc used for LDA+U Projector are NOT orthogonalized
     Starting wfc are  569 randomized atomic wfcs

     total cpu time spent up to now is       49.7 secs

     per-process dynamical memory:   410.4 Mb

     Self-consistent Calculation

     iteration #  1     ecut=    60.00 Ry     beta=0.70
     Davidson diagonalization with overlap
     ethr =  1.00E-02,  avg # of iterations =  3.0
 --- enter write_ns ---
 LDA+U parameters:
U( 1)     =  7.00000000
alpha( 1) =  0.00000000
U( 2)     =  5.50000000
alpha( 2) =  0.00000000
U( 3)     =  5.50000000
alpha( 3) =  0.00000000
atom    1   Tr[ns(na)] =   4.79387
    eigenvalues: 
  0.711  0.842  0.843
    eigenvectors:
  1.000  0.000  0.000
  0.000  0.193  0.807
  0.000  0.807  0.193
    occupations:
  0.711 -0.000 -0.000
 -0.000  0.843  0.000
 -0.000  0.000  0.843
atom    2   Tr[ns(na)] =   4.79950
    eigenvalues: 
  0.714  0.842  0.843
    eigenvectors:
  1.000  0.000  0.000
  0.000  0.964  0.036
  0.000  0.036  0.964
    occupations:
  0.714 -0.000 -0.000
 -0.000  0.842  0.000
 -0.000  0.000  0.843
atom    3   Tr[ns(na)] =   4.79679
    eigenvalues: 
  0.713  0.842  0.844
    eigenvectors:
  1.000  0.000  0.000
  0.000  0.470  0.530
  0.000  0.530  0.470
    occupations:
  0.713 -0.000 -0.000
 -0.000  0.843  0.001
 -0.000  0.001  0.843
atom    4   Tr[ns(na)] =   4.80596
    eigenvalues: 
  0.717  0.842  0.844
    eigenvectors:
  1.000  0.000  0.000
  0.000  0.992  0.008
  0.000  0.008  0.992
    occupations:
  0.717 -0.000 -0.000
 -0.000  0.842 -0.000
 -0.000 -0.000  0.844
atom    5   Tr[ns(na)] =   4.79869
    eigenvalues: 
  0.713  0.842  0.844
    eigenvectors:
  1.000  0.000  0.000
  0.000  0.134  0.866
  0.000  0.866  0.134
    occupations:
  0.713 -0.000 -0.000
 -0.000  0.844  0.001
 -0.000  0.001  0.842
atom    6   Tr[ns(na)] =   4.80743
    eigenvalues: 
  0.718  0.842  0.844
    eigenvectors:
  1.000  0.000  0.000
  0.000  0.959  0.041
  0.000  0.041  0.959
    occupations:
  0.718 -0.000  0.000
 -0.000  0.842 -0.000
  0.000 -0.000  0.844
atom    7   Tr[ns(na)] =   4.80018
    eigenvalues: 
  0.714  0.842  0.844
    eigenvectors:
  1.000  0.000  0.000
  0.000  0.030  0.970
  0.000  0.970  0.030
    occupations:
  0.714  0.000 -0.000
  0.000  0.844  0.000
 -0.000  0.000  0.842
atom    8   Tr[ns(na)] =   4.80695
    eigenvalues: 
  0.718  0.842  0.843
    eigenvectors:
  1.000  0.000  0.000
  0.000  0.841  0.159
  0.000  0.159  0.841
    occupations:
  0.718  0.000  0.000
  0.000  0.843  0.000
  0.000  0.000  0.843
atom    9   Tr[ns(na)] =   4.80211
    eigenvalues: 
  0.715  0.842  0.844
    eigenvectors:
  1.000  0.000  0.000
  0.000  0.221  0.779
  0.000  0.779  0.221
    occupations:
  0.715  0.000 -0.000
  0.000  0.844  0.001
 -0.000  0.001  0.843
atom   10   Tr[ns(na)] =   4.81304
    eigenvalues: 
  0.720  0.842  0.845
    eigenvectors:
  1.000  0.000  0.000
  0.000  0.987  0.013
  0.000  0.013  0.987
    occupations:
  0.720  0.000 -0.000
  0.000  0.842 -0.000
 -0.000 -0.000  0.845
atom   11   Tr[ns(na)] =   4.81145
    eigenvalues: 
  0.719  0.842  0.845
    eigenvectors:
  1.000  0.000  0.000
  0.000  0.120  0.880
  0.000  0.880  0.120
    occupations:
  0.719 -0.000 -0.000
 -0.000  0.845  0.001
 -0.000  0.001  0.842
atom   12   Tr[ns(na)] =   4.82436
    eigenvalues: 
  0.725  0.841  0.846
    eigenvectors:
  1.000  0.000  0.000
  0.000  0.915  0.085
  0.000  0.085  0.915
    occupations:
  0.725  0.000 -0.000
  0.000  0.842 -0.001
 -0.000 -0.001  0.845
atom   13   Tr[ns(na)] =   4.81178
    eigenvalues: 
  0.719  0.842  0.845
    eigenvectors:
  1.000  0.000  0.000
  0.000  0.250  0.750
  0.000  0.750  0.250
    occupations:
  0.719 -0.000  0.000
 -0.000  0.844  0.001
  0.000  0.001  0.842
atom   14   Tr[ns(na)] =   4.81810
    eigenvalues: 
  0.723  0.841  0.845
    eigenvectors:
  1.000  0.000  0.000
  0.000  0.813  0.187
  0.000  0.187  0.813
    occupations:
  0.723 -0.000  0.000
 -0.000  0.842 -0.001
  0.000 -0.001  0.844
atom   15   Tr[ns(na)] =   4.80842
    eigenvalues: 
  0.718  0.842  0.844
    eigenvectors:
  1.000  0.000  0.000
  0.000  0.484  0.516
  0.000  0.516  0.484
    occupations:
  0.718 -0.000 -0.000
 -0.000  0.843  0.001
 -0.000  0.001  0.843
atom   16   Tr[ns(na)] =   4.81054
    eigenvalues: 
  0.719  0.843  0.844
    eigenvectors:
  1.000  0.000  0.000
  0.000  0.548  0.452
  0.000  0.452  0.548
    occupations:
  0.719 -0.000 -0.000
 -0.000  0.843 -0.001
 -0.000 -0.001  0.843
atom   17   Tr[ns(na)] =   4.80649
    eigenvalues: 
  0.717  0.842  0.843
    eigenvectors:
  1.000  0.000  0.000
  0.000  0.857  0.143
  0.000  0.143  0.857
    occupations:
  0.717 -0.000 -0.000
 -0.000  0.843  0.000
 -0.000  0.000  0.843
atom   18   Tr[ns(na)] =   4.80108
    eigenvalues: 
  0.714  0.842  0.844
    eigenvectors:
  1.000  0.000  0.000
  0.000  0.040  0.960
  0.000  0.960  0.040
    occupations:
  0.714 -0.000  0.000
 -0.000  0.844  0.000
  0.000  0.000  0.842
atom   19   Tr[ns(na)] =   4.80169
    eigenvalues: 
  0.715  0.842  0.843
    eigenvectors:
  1.000  0.000  0.000
  0.000  0.047  0.953
  0.000  0.953  0.047
    occupations:
  0.715  0.000  0.000
  0.000  0.843  0.000
  0.000  0.000  0.842
atom   20   Tr[ns(na)] =   4.81260
    eigenvalues: 
  0.720  0.841  0.845
    eigenvectors:
  1.000  0.000  0.000
  0.000  0.990  0.010
  0.000  0.010  0.990
    occupations:
  0.720  0.000  0.000
  0.000  0.841  0.000
  0.000  0.000  0.845
atom   21   Tr[ns(na)] =   4.81860
    eigenvalues: 
  0.723  0.841  0.846
    eigenvectors:
  1.000  0.000  0.000
  0.000  0.049  0.951
  0.000  0.951  0.049
    occupations:
  0.723  0.000  0.000
  0.000  0.845  0.001
  0.000  0.001  0.841
atom   22   Tr[ns(na)] =   4.84395
    eigenvalues: 
  0.734  0.841  0.847
    eigenvectors:
  1.000  0.000  0.000
  0.000  0.984  0.016
  0.000  0.016  0.984
    occupations:
  0.734  0.000 -0.000
  0.000  0.841 -0.001
 -0.000 -0.001  0.847
atom   23   Tr[ns(na)] =   4.84149
    eigenvalues: 
  0.733  0.841  0.847
    eigenvectors:
  1.000  0.000  0.000
  0.000  0.118  0.882
  0.000  0.882  0.118
    occupations:
  0.733 -0.000 -0.000
 -0.000  0.847  0.002
 -0.000  0.002  0.842
atom   24   Tr[ns(na)] =   4.86239
    eigenvalues: 
  0.742  0.841  0.848
    eigenvectors:
  1.000  0.000  0.000
  0.000  0.799  0.201
  0.000  0.201  0.799
    occupations:
  0.742  0.000  0.000
  0.000  0.842 -0.003
  0.000 -0.003  0.846
atom   25   Tr[ns(na)] =   4.84108
    eigenvalues: 
  0.733  0.841  0.847
    eigenvectors:
  1.000  0.000  0.000
  0.000  0.440  0.560
  0.000  0.560  0.440
    occupations:
  0.733 -0.000 -0.000
 -0.000  0.844  0.003
 -0.000  0.003  0.843
atom   26   Tr[ns(na)] =   4.84143
    eigenvalues: 
  0.733  0.841  0.847
    eigenvectors:
  1.000  0.000  0.000
  0.000  0.464  0.536
  0.000  0.536  0.464
    occupations:
  0.733 -0.000 -0.000
 -0.000  0.844 -0.003
 -0.000 -0.003  0.844
atom   27   Tr[ns(na)] =   4.82465
    eigenvalues: 
  0.726  0.841  0.846
    eigenvectors:
  1.000  0.000  0.000
  0.000  0.730  0.270
  0.000  0.270  0.730
    occupations:
  0.726  0.000 -0.000
  0.000  0.842  0.002
 -0.000  0.002  0.844
atom   28   Tr[ns(na)] =   4.81780
    eigenvalues: 
  0.721  0.843  0.845
    eigenvectors:
  1.000  0.000  0.000
  0.000  0.199  0.801
  0.000  0.801  0.199
    occupations:
  0.721 -0.000  0.000
 -0.000  0.844 -0.001
  0.000 -0.001  0.843
atom   29   Tr[ns(na)] =   4.81352
    eigenvalues: 
  0.720  0.842  0.845
    eigenvectors:
  1.000  0.000  0.000
  0.000  0.836  0.164
  0.000  0.164  0.836
    occupations:
  0.720 -0.000  0.000
 -0.000  0.842  0.001
  0.000  0.001  0.844
atom   30   Tr[ns(na)] =   4.80159
    eigenvalues: 
  0.714  0.843  0.844
    eigenvectors:
  1.000  0.000  0.000
  0.000  0.032  0.968
  0.000  0.968  0.032
    occupations:
  0.714 -0.001  0.000
 -0.001  0.844 -0.000
  0.000 -0.000  0.843
atom   31   Tr[ns(na)] =   4.79989
    eigenvalues: 
  0.714  0.842  0.843
    eigenvectors:
  1.000  0.000  0.000
  0.000  0.969  0.031
  0.000  0.031  0.969
    occupations:
  0.714  0.000  0.000
  0.000  0.842  0.000
  0.000  0.000  0.843
atom   32   Tr[ns(na)] =   4.79405
    eigenvalues: 
  0.711  0.842  0.843
    eigenvectors:
  1.000  0.000  0.000
  0.000  0.157  0.843
  0.000  0.843  0.157
    occupations:
  0.711  0.000  0.000
  0.000  0.843  0.000
  0.000  0.000  0.843
atom   33   Tr[ns(na)] =   4.79937
    eigenvalues: 
  0.714  0.842  0.843
    eigenvectors:
  1.000  0.000  0.000
  0.000  0.007  0.993
  0.000  0.993  0.007
    occupations:
  0.714  0.000  0.000
  0.000  0.843 -0.000
  0.000 -0.000  0.842
atom   34   Tr[ns(na)] =   4.80825
    eigenvalues: 
  0.718  0.841  0.845
    eigenvectors:
  1.000  0.000  0.000
  0.000  0.883  0.117
  0.000  0.117  0.883
    occupations:
  0.718 -0.000 -0.000
 -0.000  0.842  0.001
 -0.000  0.001  0.844
atom   35   Tr[ns(na)] =   4.81399
    eigenvalues: 
  0.721  0.841  0.845
    eigenvectors:
  1.000  0.000  0.000
  0.000  0.001  0.999
  0.000  0.999  0.001
    occupations:
  0.721 -0.000 -0.000
 -0.000  0.845 -0.000
 -0.000 -0.000  0.841
atom   36   Tr[ns(na)] =   4.84312
    eigenvalues: 
  0.734  0.841  0.847
    eigenvectors:
  1.000  0.000  0.000
  0.000  0.955  0.045
  0.000  0.045  0.955
    occupations:
  0.734 -0.000 -0.000
 -0.000  0.841  0.001
 -0.000  0.001  0.847
atom   37   Tr[ns(na)] =   4.85979
    eigenvalues: 
  0.741  0.841  0.848
    eigenvectors:
  1.000  0.000  0.000
  0.000  0.001  0.999
  0.000  0.999  0.001
    occupations:
  0.741  0.000 -0.000
  0.000  0.848  0.000
 -0.000  0.000  0.841
atom   38   Tr[ns(na)] =   4.91713
    eigenvalues: 
  0.767  0.842  0.850
    eigenvectors:
  1.000  0.000  0.000
  0.000  0.999  0.001
  0.000  0.001  0.999
    occupations:
  0.767  0.000 -0.001
  0.000  0.842  0.000
 -0.001  0.000  0.850
atom   39   Tr[ns(na)] =   4.91011
    eigenvalues: 
  0.763  0.842  0.850
    eigenvectors:
  1.000  0.000  0.000
  0.000  0.265  0.735
  0.000  0.735  0.265
    occupations:
  0.763 -0.001 -0.001
 -0.001  0.848  0.003
 -0.001  0.003  0.844
atom   40   Tr[ns(na)] =   4.91607
    eigenvalues: 
  0.766  0.843  0.849
    eigenvectors:
  1.000  0.000  0.000
  0.000  0.274  0.726
  0.000  0.726  0.274
    occupations:
  0.766 -0.001  0.001
 -0.001  0.847 -0.003
  0.001 -0.003  0.845
atom   41   Tr[ns(na)] =   4.86890
    eigenvalues: 
  0.745  0.841  0.848
    eigenvectors:
  1.000  0.000  0.000
  0.000  0.739  0.261
  0.000  0.261  0.739
    occupations:
  0.745  0.000 -0.000
  0.000  0.843  0.003
 -0.000  0.003  0.846
atom   42   Tr[ns(na)] =   4.84449
    eigenvalues: 
  0.734  0.841  0.847
    eigenvectors:
  1.000  0.000  0.000
  0.000  0.093  0.907
  0.000  0.907  0.093
    occupations:
  0.734 -0.000  0.000
 -0.000  0.847 -0.002
  0.000 -0.002  0.842
atom   43   Tr[ns(na)] =   4.82651
    eigenvalues: 
  0.726  0.841  0.846
    eigenvectors:
  1.000  0.000  0.000
  0.000  0.834  0.166
  0.000  0.166  0.834
    occupations:
  0.726  0.000  0.000
  0.000  0.842  0.002
  0.000  0.002  0.845
atom   44   Tr[ns(na)] =   4.81104
    eigenvalues: 
  0.719  0.842  0.845
    eigenvectors:
  1.000  0.000  0.000
  0.000  0.035  0.965
  0.000  0.965  0.035
    occupations:
  0.719  0.000  0.000
  0.000  0.845 -0.001
  0.000 -0.001  0.842
atom   45   Tr[ns(na)] =   4.80711
    eigenvalues: 
  0.717  0.842  0.844
    eigenvectors:
  1.000  0.000  0.000
  0.000  0.914  0.086
  0.000  0.086  0.914
    occupations:
  0.717  0.000  0.001
  0.000  0.842  0.001
  0.001  0.001  0.844
atom   46   Tr[ns(na)] =   4.79575
    eigenvalues: 
  0.712  0.843  0.843
    eigenvectors:
  1.000  0.000  0.000
  0.000  0.299  0.701
  0.000  0.701  0.299
    occupations:
  0.712 -0.000  0.000
 -0.000  0.843 -0.000
  0.000 -0.000  0.843
atom   47   Tr[ns(na)] =   4.79633
    eigenvalues: 
  0.713  0.842  0.843
    eigenvectors:
  1.000  0.000  0.000
  0.000  0.790  0.210
  0.000  0.210  0.790
    occupations:
  0.713 -0.000  0.000
 -0.000  0.842  0.001
  0.000  0.001  0.843
atom   48   Tr[ns(na)] =   4.79565
    eigenvalues: 
  0.712  0.842  0.843
    eigenvectors:
  1.000  0.000  0.000
  0.000  0.922  0.078
  0.000  0.078  0.922
    occupations:
  0.712 -0.000 -0.000
 -0.000  0.842  0.000
 -0.000  0.000  0.843
atom   49   Tr[ns(na)] =   4.79564
    eigenvalues: 
  0.712  0.843  0.843
    eigenvectors:
  1.000  0.000  0.000
  0.000  0.455  0.545
  0.000  0.545  0.455
    occupations:
  0.712  0.000 -0.000
  0.000  0.843 -0.000
 -0.000 -0.000  0.843
atom   50   Tr[ns(na)] =   4.80603
    eigenvalues: 
  0.717  0.842  0.844
    eigenvectors:
  1.000  0.000  0.000
  0.000  0.919  0.081
  0.000  0.081  0.919
    occupations:
  0.717 -0.000 -0.001
 -0.000  0.842  0.001
 -0.001  0.001  0.844
atom   51   Tr[ns(na)] =   4.80926
    eigenvalues: 
  0.718  0.842  0.845
    eigenvectors:
  1.000  0.000  0.000
  0.000  0.031  0.969
  0.000  0.969  0.031
    occupations:
  0.718 -0.000 -0.000
 -0.000  0.845 -0.000
 -0.000 -0.000  0.842
atom   52   Tr[ns(na)] =   4.82511
    eigenvalues: 
  0.725  0.841  0.846
    eigenvectors:
  1.000  0.000  0.000
  0.000  0.843  0.157
  0.000  0.157  0.843
    occupations:
  0.725 -0.000 -0.000
 -0.000  0.842  0.002
 -0.000  0.002  0.845
atom   53   Tr[ns(na)] =   4.84174
    eigenvalues: 
  0.733  0.841  0.847
    eigenvectors:
  1.000  0.000  0.000
  0.000  0.079  0.921
  0.000  0.921  0.079
    occupations:
  0.733  0.000 -0.000
  0.000  0.847 -0.002
 -0.000 -0.002  0.842
atom   54   Tr[ns(na)] =   4.86663
    eigenvalues: 
  0.744  0.841  0.848
    eigenvectors:
  1.000  0.000  0.000
  0.000  0.771  0.229
  0.000  0.229  0.771
    occupations:
  0.744 -0.000  0.000
 -0.000  0.842  0.003
  0.000  0.003  0.847
atom   55   Tr[ns(na)] =   4.91442
    eigenvalues: 
  0.765  0.843  0.849
    eigenvectors:
  1.000  0.000  0.000
  0.000  0.217  0.782
  0.000  0.783  0.217
    occupations:
  0.765  0.001 -0.001
  0.001  0.848 -0.003
 -0.001 -0.003  0.844
atom   56   Tr[ns(na)] =   4.91493
    eigenvalues: 
  0.766  0.842  0.850
    eigenvectors:
  1.000  0.000  0.000
  0.000  0.302  0.697
  0.000  0.698  0.302
    occupations:
  0.766  0.001  0.001
  0.001  0.847  0.003
  0.001  0.003  0.845
atom   57   Tr[ns(na)] =   4.92402
    eigenvalues: 
  0.770  0.842  0.850
    eigenvectors:
  1.000  0.000  0.000
  0.000  0.997  0.003
  0.000  0.003  0.997
    occupations:
  0.770 -0.000  0.001
 -0.000  0.842  0.000
  0.001  0.000  0.850
atom   58   Tr[ns(na)] =   4.86601
    eigenvalues: 
  0.744  0.841  0.848
    eigenvectors:
  1.000  0.000  0.000
  0.000  0.001  0.999
  0.000  0.999  0.001
    occupations:
  0.744 -0.000 -0.000
 -0.000  0.848  0.000
 -0.000  0.000  0.841
atom   59   Tr[ns(na)] =   4.84713
    eigenvalues: 
  0.736  0.840  0.847
    eigenvectors:
  1.000  0.000  0.000
  0.000  0.951  0.049
  0.000  0.049  0.951
    occupations:
  0.736  0.000  0.000
  0.000  0.841  0.001
  0.000  0.001  0.847
atom   60   Tr[ns(na)] =   4.81561
    eigenvalues: 
  0.721  0.841  0.845
    eigenvectors:
  1.000  0.000  0.000
  0.000  0.001  0.999
  0.000  0.999  0.001
    occupations:
  0.721  0.000  0.000
  0.000  0.845 -0.000
  0.000 -0.000  0.841
atom   61   Tr[ns(na)] =   4.80947
    eigenvalues: 
  0.718  0.841  0.845
    eigenvectors:
  1.000  0.000  0.000
  0.000  0.882  0.118
  0.000  0.118  0.882
    occupations:
  0.718  0.000  0.000
  0.000  0.842  0.001
  0.000  0.001  0.845
atom   62   Tr[ns(na)] =   4.79988
    eigenvalues: 
  0.714  0.842  0.843
    eigenvectors:
  1.000  0.000  0.000
  0.000  0.009  0.991
  0.000  0.991  0.009
    occupations:
  0.714 -0.000 -0.000
 -0.000  0.843 -0.000
 -0.000 -0.000  0.842
atom   63   Tr[ns(na)] =   4.79767
    eigenvalues: 
  0.713  0.842  0.844
    eigenvectors:
  1.000  0.000  0.000
  0.000  0.802  0.198
  0.000  0.198  0.802
    occupations:
  0.713 -0.000  0.000
 -0.000  0.842  0.001
  0.000  0.001  0.843
atom   64   Tr[ns(na)] =   4.79848
    eigenvalues: 
  0.713  0.842  0.843
    eigenvectors:
  1.000  0.000  0.000
  0.000  0.989  0.011
  0.000  0.011  0.989
    occupations:
  0.713 -0.000 -0.000
 -0.000  0.842  0.000
 -0.000  0.000  0.843
atom   65   Tr[ns(na)] =   4.80035
    eigenvalues: 
  0.714  0.842  0.844
    eigenvectors:
  1.000  0.000  0.000
  0.000  0.040  0.960
  0.000  0.960  0.040
    occupations:
  0.714  0.000 -0.001
  0.000  0.844 -0.000
 -0.001 -0.000  0.843
atom   66   Tr[ns(na)] =   4.81299
    eigenvalues: 
  0.720  0.842  0.845
    eigenvectors:
  1.000  0.000  0.000
  0.000  0.836  0.164
  0.000  0.164  0.836
    occupations:
  0.720  0.000 -0.000
  0.000  0.842  0.001
 -0.000  0.001  0.844
atom   67   Tr[ns(na)] =   4.81666
    eigenvalues: 
  0.721  0.843  0.845
    eigenvectors:
  1.000  0.000  0.000
  0.000  0.162  0.838
  0.000  0.838  0.162
    occupations:
  0.721 -0.000 -0.000
 -0.000  0.845 -0.001
 -0.000 -0.001  0.843
atom   68   Tr[ns(na)] =   4.82477
    eigenvalues: 
  0.726  0.841  0.846
    eigenvectors:
  1.000  0.000  0.000
  0.000  0.736  0.264
  0.000  0.264  0.736
    occupations:
  0.726 -0.000  0.000
 -0.000  0.842  0.002
  0.000  0.002  0.844
atom   69   Tr[ns(na)] =   4.84181
    eigenvalues: 
  0.733  0.841  0.847
    eigenvectors:
  1.000  0.000  0.000
  0.000  0.429  0.571
  0.000  0.571  0.429
    occupations:
  0.733  0.000  0.000
  0.000  0.844 -0.003
  0.000 -0.003  0.844
atom   70   Tr[ns(na)] =   4.84315
    eigenvalues: 
  0.734  0.841  0.847
    eigenvectors:
  1.000  0.000  0.000
  0.000  0.470  0.530
  0.000  0.530  0.470
    occupations:
  0.734  0.000  0.000
  0.000  0.844  0.003
  0.000  0.003  0.844
atom   71   Tr[ns(na)] =   4.86586
    eigenvalues: 
  0.744  0.841  0.848
    eigenvectors:
  1.000  0.000  0.000
  0.000  0.776  0.224
  0.000  0.224  0.776
    occupations:
  0.744 -0.000 -0.000
 -0.000  0.843 -0.003
 -0.000 -0.003  0.846
atom   72   Tr[ns(na)] =   4.84592
    eigenvalues: 
  0.735  0.841  0.848
    eigenvectors:
  1.000  0.000  0.000
  0.000  0.130  0.870
  0.000  0.870  0.130
    occupations:
  0.735  0.000  0.000
  0.000  0.847  0.002
  0.000  0.002  0.842
atom   73   Tr[ns(na)] =   4.84822
    eigenvalues: 
  0.736  0.841  0.847
    eigenvectors:
  1.000  0.000  0.000
  0.000  0.982  0.018
  0.000  0.018  0.982
    occupations:
  0.736 -0.000  0.000
 -0.000  0.841 -0.001
  0.000 -0.001  0.847
atom   74   Tr[ns(na)] =   4.82103
    eigenvalues: 
  0.724  0.841  0.846
    eigenvectors:
  1.000  0.000  0.000
  0.000  0.045  0.955
  0.000  0.955  0.045
    occupations:
  0.724 -0.000 -0.000
 -0.000  0.846  0.001
 -0.000  0.001  0.841
atom   75   Tr[ns(na)] =   4.81477
    eigenvalues: 
  0.721  0.841  0.845
    eigenvectors:
  1.000  0.000  0.000
  0.000  0.990  0.010
  0.000  0.010  0.990
    occupations:
  0.721 -0.000 -0.000
 -0.000  0.841  0.000
 -0.000  0.000  0.845
atom   76   Tr[ns(na)] =   4.80220
    eigenvalues: 
  0.716  0.842  0.843
    eigenvectors:
  1.000  0.000  0.000
  0.000  0.029  0.971
  0.000  0.971  0.029
    occupations:
  0.716 -0.000 -0.000
 -0.000  0.843  0.000
 -0.000  0.000  0.842
atom   77   Tr[ns(na)] =   4.80040
    eigenvalues: 
  0.715  0.842  0.844
    eigenvectors:
  1.000  0.000  0.000
  0.000  0.893  0.107
  0.000  0.107  0.893
    occupations:
  0.715 -0.000  0.000
 -0.000  0.842  0.001
  0.000  0.001  0.843
atom   78   Tr[ns(na)] =   4.79977
    eigenvalues: 
  0.714  0.842  0.843
    eigenvectors:
  1.000  0.000  0.000
  0.000  1.000  0.000
  0.000  0.000  1.000
    occupations:
  0.714  0.000 -0.000
  0.000  0.842  0.000
 -0.000  0.000  0.843
atom   79   Tr[ns(na)] =   4.81128
    eigenvalues: 
  0.719  0.843  0.844
    eigenvectors:
  1.000  0.000  0.000
  0.000  0.426  0.574
  0.000  0.574  0.426
    occupations:
  0.719  0.000  0.000
  0.000  0.843 -0.001
  0.000 -0.001  0.843
atom   80   Tr[ns(na)] =   4.80944
    eigenvalues: 
  0.719  0.842  0.844
    eigenvectors:
  1.000  0.000  0.000
  0.000  0.502  0.498
  0.000  0.498  0.502
    occupations:
  0.719  0.000  0.000
  0.000  0.843  0.001
  0.000  0.001  0.843
atom   81   Tr[ns(na)] =   4.81906
    eigenvalues: 
  0.723  0.841  0.845
    eigenvectors:
  1.000  0.000  0.000
  0.000  0.790  0.210
  0.000  0.210  0.790
    occupations:
  0.723  0.000 -0.000
  0.000  0.842 -0.002
 -0.000 -0.002  0.844
atom   82   Tr[ns(na)] =   4.81292
    eigenvalues: 
  0.720  0.841  0.845
    eigenvectors:
  1.000  0.000  0.000
  0.000  0.266  0.734
  0.000  0.734  0.266
    occupations:
  0.720  0.000 -0.000
  0.000  0.844  0.002
 -0.000  0.002  0.842
atom   83   Tr[ns(na)] =   4.82545
    eigenvalues: 
  0.726  0.841  0.846
    eigenvectors:
  1.000  0.000  0.000
  0.000  0.913  0.087
  0.000  0.087  0.913
    occupations:
  0.726 -0.000 -0.000
 -0.000  0.842 -0.001
 -0.000 -0.001  0.845
atom   84   Tr[ns(na)] =   4.81320
    eigenvalues: 
  0.720  0.842  0.845
    eigenvectors:
  1.000  0.000  0.000
  0.000  0.126  0.874
  0.000  0.874  0.126
    occupations:
  0.720 -0.000  0.000
 -0.000  0.845  0.001
  0.000  0.001  0.842
atom   85   Tr[ns(na)] =   4.81422
    eigenvalues: 
  0.720  0.842  0.845
    eigenvectors:
  1.000  0.000  0.000
  0.000  0.987  0.013
  0.000  0.013  0.987
    occupations:
  0.720 -0.000  0.000
 -0.000  0.842 -0.000
  0.000 -0.000  0.845
atom   86   Tr[ns(na)] =   4.80303
    eigenvalues: 
  0.715  0.842  0.844
    eigenvectors:
  1.000  0.000  0.000
  0.000  0.186  0.814
  0.000  0.814  0.186
    occupations:
  0.715 -0.000  0.000
 -0.000  0.844  0.001
  0.000  0.001  0.842
atom   87   Tr[ns(na)] =   4.80071
    eigenvalues: 
  0.715  0.842  0.843
    eigenvectors:
  1.000  0.000  0.000
  0.000  1.000  0.000
  0.000  0.000  1.000
    occupations:
  0.715  0.000  0.000
  0.000  0.842 -0.000
  0.000 -0.000  0.843
atom   88   Tr[ns(na)] =   4.79992
    eigenvalues: 
  0.714  0.842  0.843
    eigenvectors:
  1.000  0.000  0.000
  0.000  0.869  0.131
  0.000  0.131  0.869
    occupations:
  0.714  0.000  0.000
  0.000  0.842  0.000
  0.000  0.000  0.843
atom   89   Tr[ns(na)] =   4.80832
    eigenvalues: 
  0.718  0.842  0.844
    eigenvectors:
  1.000  0.000  0.000
  0.000  0.949  0.051
  0.000  0.051  0.949
    occupations:
  0.718  0.000 -0.000
  0.000  0.842 -0.000
 -0.000 -0.000  0.844
atom   90   Tr[ns(na)] =   4.79987
    eigenvalues: 
  0.714  0.842  0.844
    eigenvectors:
  1.000  0.000  0.000
  0.000  0.120  0.880
  0.000  0.880  0.120
    occupations:
  0.714  0.001  0.000
  0.001  0.844  0.001
  0.000  0.001  0.842
atom   91   Tr[ns(na)] =   4.80705
    eigenvalues: 
  0.717  0.842  0.844
    eigenvectors:
  1.000  0.000  0.000
  0.000  0.985  0.015
  0.000  0.015  0.985
    occupations:
  0.717  0.000  0.000
  0.000  0.842 -0.000
  0.000 -0.000  0.844
atom   92   Tr[ns(na)] =   4.79720
    eigenvalues: 
  0.713  0.842  0.844
    eigenvectors:
  1.000  0.000  0.000
  0.000  0.423  0.577
  0.000  0.577  0.423
    occupations:
  0.713  0.001  0.000
  0.001  0.843  0.001
  0.000  0.001  0.843
atom   93   Tr[ns(na)] =   4.79888
    eigenvalues: 
  0.714  0.842  0.843
    eigenvectors:
  1.000  0.000  0.000
  0.000  0.993  0.007
  0.000  0.007  0.993
    occupations:
  0.714  0.000  0.000
  0.000  0.842  0.000
  0.000  0.000  0.843
atom   94   Tr[ns(na)] =   4.79714
    eigenvalues: 
  0.713  0.842  0.844
    eigenvectors:
  1.000  0.000  0.000
  0.000  0.802  0.198
  0.000  0.198  0.802
    occupations:
  0.713  0.000  0.000
  0.000  0.842  0.001
  0.000  0.001  0.843
atom   95   Tr[ns(na)] =   4.79629
    eigenvalues: 
  0.713  0.842  0.843
    eigenvectors:
  1.000  0.000  0.000
  0.000  0.938  0.062
  0.000  0.062  0.938
    occupations:
  0.713  0.000  0.000
  0.000  0.842  0.000
  0.000  0.000  0.843
atom   96   Tr[ns(na)] =   4.79609
    eigenvalues: 
  0.713  0.842  0.843
    eigenvectors:
  1.000  0.000  0.000
  0.000  0.753  0.247
  0.000  0.247  0.753
    occupations:
  0.713 -0.000 -0.000
 -0.000  0.842  0.001
 -0.000  0.001  0.843
atom   97   Tr[ns(na)] =   4.74976
    eigenvalues: 
  0.764  0.776  0.835
    eigenvectors:
  1.000  0.000  0.000
  0.000  0.001  0.999
  0.000  0.998  0.001
    occupations:
  0.764 -0.000  0.000
 -0.000  0.835  0.002
  0.000  0.002  0.776
atom   98   Tr[ns(na)] =   4.75705
    eigenvalues: 
  0.765  0.779  0.834
    eigenvectors:
  1.000  0.000  0.000
  0.000  0.924  0.076
  0.000  0.076  0.924
    occupations:
  0.765 -0.000  0.000
 -0.000  0.783 -0.015
  0.000 -0.015  0.830
atom   99   Tr[ns(na)] =   4.94228
    eigenvalues: 
  0.778  0.819  0.874
    eigenvectors:
  1.000  0.000  0.000
  0.000  0.738  0.262
  0.000  0.262  0.738
    occupations:
  0.778  0.000 -0.001
  0.000  0.834 -0.024
 -0.001 -0.024  0.860
atom  100   Tr[ns(na)] =   4.94728
    eigenvalues: 
  0.778  0.821  0.874
    eigenvectors:
  1.000  0.000  0.000
[...]
     atom   25 type  3   force =     0.00013798   -0.00005732    0.00000464
     atom   26 type  3   force =     0.00001941    0.00004960    0.00002070
     atom   27 type  3   force =    -0.00014616   -0.00015072    0.00003895
     atom   28 type  3   force =     0.00001344    0.00017517    0.00007501
     atom   29 type  3   force =     0.00007680   -0.00015180    0.00001731
     atom   30 type  3   force =     0.00004040    0.00026695    0.00006365
     atom   31 type  3   force =    -0.00001159   -0.00018614    0.00010605
     atom   32 type  3   force =    -0.00013657    0.00015557    0.00011561
     atom   33 type  3   force =     0.00004582    0.00004195    0.00007627
     atom   34 type  3   force =     0.00004935   -0.00006469    0.00007565
     atom   35 type  3   force =    -0.00007103   -0.00000716   -0.00002085
     atom   36 type  3   force =     0.00004963    0.00012965    0.00004869
     atom   37 type  3   force =     0.00013328   -0.00013372    0.00009595
     atom   38 type  3   force =    -0.00007960    0.00012966    0.00012979
     atom   39 type  3   force =    -0.00003134   -0.00009698    0.00006114
     atom   40 type  3   force =    -0.00006686    0.00002800    0.00000436
     atom   41 type  3   force =     0.00008078   -0.00010556    0.00004222
     atom   42 type  3   force =     0.00007297    0.00019910    0.00004776
     atom   43 type  3   force =     0.00002993   -0.00025781    0.00008307
     atom   44 type  3   force =     0.00001685    0.00027015    0.00013915
     atom   45 type  3   force =    -0.00006535   -0.00022944    0.00012370
     atom   46 type  3   force =    -0.00003324    0.00016791    0.00006606
     atom   47 type  3   force =     0.00009765   -0.00001157    0.00001459
     atom   48 type  3   force =    -0.00007914   -0.00008375    0.00003345
     atom   49 type  3   force =     0.00003190    0.00003105    0.00007927
     atom   50 type  3   force =     0.00004768   -0.00005889    0.00012578
     atom   51 type  3   force =    -0.00000313   -0.00010851    0.00014602
     atom   52 type  3   force =     0.00001967    0.00012813    0.00009365
     atom   53 type  3   force =    -0.00007506   -0.00017156    0.00005783
     atom   54 type  3   force =    -0.00009022    0.00009875    0.00006063
     atom   55 type  3   force =     0.00009642   -0.00006715    0.00003063
     atom   56 type  3   force =     0.00002786    0.00009734    0.00005310
     atom   57 type  3   force =     0.00011042   -0.00012056    0.00010789
     atom   58 type  3   force =    -0.00010830    0.00013063    0.00012226
     atom   59 type  3   force =    -0.00004031   -0.00023077    0.00006834
     atom   60 type  3   force =     0.00008920    0.00019398   -0.00003653
     atom   61 type  3   force =    -0.00000281   -0.00022782    0.00007827
     atom   62 type  3   force =    -0.00001866    0.00014347    0.00009105
     atom   63 type  3   force =     0.00001754   -0.00010588    0.00004794
     atom   64 type  3   force =     0.00001881   -0.00003395    0.00003527
     atom   65 type  3   force =    -0.00000017   -0.00008654    0.00005540
     atom   66 type  3   force =    -0.00003474    0.00002187    0.00000973
     atom   67 type  3   force =    -0.00001548   -0.00016858    0.00007379
     atom   68 type  3   force =     0.00014705    0.00016502    0.00003627
     atom   69 type  3   force =     0.00001929   -0.00004905    0.00000993
     atom   70 type  3   force =    -0.00013142    0.00001031   -0.00001502
     atom   71 type  3   force =    -0.00000516   -0.00011746    0.00002748
     atom   72 type  3   force =    -0.00004854    0.00014759    0.00001657
     atom   73 type  3   force =     0.00017304   -0.00007270    0.00006033
     atom   74 type  3   force =     0.00004098    0.00009983   -0.00007471
     atom   75 type  3   force =    -0.00006246   -0.00035594   -0.00007969
     atom   76 type  3   force =     0.00007492    0.00017950    0.00001380
     atom   77 type  3   force =    -0.00003417    0.00000585    0.00008509
     atom   78 type  3   force =     0.00009043   -0.00014580    0.00001603
     atom   79 type  3   force =    -0.00016638   -0.00014482    0.00011019
     atom   80 type  3   force =    -0.00003509    0.00005028    0.00006017
     atom   81 type  3   force =     0.00008051    0.00001977   -0.00006220
     atom   82 type  3   force =     0.00005966    0.00007911   -0.00000992
     atom   83 type  3   force =    -0.00001049   -0.00013333    0.00007786
     atom   84 type  3   force =    -0.00021273    0.00012869    0.00010053
     atom   85 type  3   force =     0.00006593   -0.00020933   -0.00004200
     atom   86 type  3   force =     0.00017172    0.00002828    0.00000556
     atom   87 type  3   force =    -0.00008098    0.00003150    0.00004596
     atom   88 type  3   force =     0.00003139   -0.00010079    0.00007903
     atom   89 type  3   force =    -0.00008595   -0.00024102    0.00002378
     atom   90 type  3   force =    -0.00005587    0.00027720    0.00007268
     atom   91 type  3   force =     0.00020348   -0.00006311    0.00016142
     atom   92 type  3   force =    -0.00002278    0.00001210    0.00009277
     atom   93 type  3   force =    -0.00005159   -0.00011328    0.00003162
     atom   94 type  3   force =     0.00000162   -0.00000317    0.00004814
     atom   95 type  3   force =     0.00009798   -0.00008760    0.00003738
     atom   96 type  3   force =    -0.00003777   -0.00009012    0.00001683
     atom   97 type  3   force =     0.00026728    0.00053138   -0.00006493
     atom   98 type  3   force =    -0.00050896    0.00000898    0.00003404
     atom   99 type  3   force =     0.00005208   -0.00033478    0.00016432
     atom  100 type  3   force =     0.00035657   -0.00016261    0.00017636
     atom  101 type  3   force =    -0.00049186   -0.00028850    0.00027768
     atom  102 type  3   force =    -0.00025354   -0.00019835   -0.00002959
     atom  103 type  3   force =    -0.00060719   -0.00023720    0.00018196
     atom  104 type  3   force =    -0.00070165    0.00013377    0.00020622
     atom  105 type  3   force =    -0.00004700   -0.00044952   -0.00023944
     atom  106 type  3   force =    -0.00039333   -0.00027145   -0.00008085
     atom  107 type  3   force =     0.00037051   -0.00013683    0.00014937
     atom  108 type  3   force =     0.00022392   -0.00021099   -0.00046908
     atom  109 type  3   force =     0.00020248    0.00023733   -0.00023315
     atom  110 type  3   force =     0.00007538    0.00053744   -0.00001255
     atom  111 type  3   force =    -0.00063732    0.00049204   -0.00002965
     atom  112 type  3   force =     0.00005397    0.00008256    0.00008155
     atom  113 type  3   force =     0.00043432    0.00016087   -0.00035721
     atom  114 type  3   force =    -0.00069829    0.00030948   -0.00044286
     atom  115 type  3   force =     0.00089228    0.00028900   -0.00007082
     atom  116 type  3   force =    -0.00006024    0.00073493    0.00013122
     atom  117 type  3   force =    -0.00042853    0.00051735    0.00005744
     atom  118 type  3   force =    -0.00043449   -0.00081264   -0.00004343
     atom  119 type  3   force =     0.00042245    0.00029743    0.00007560
     atom  120 type  3   force =     0.00022147    0.00013511   -0.00004613
     atom  121 type  3   force =     0.00053935   -0.00000376   -0.00032707
     atom  122 type  3   force =     0.00037392   -0.00037113   -0.00024859
     atom  123 type  3   force =     0.00012476    0.00026703   -0.00082382
     atom  124 type  3   force =     0.00059906   -0.00078214   -0.00080949
     atom  125 type  3   force =    -0.00067712   -0.00023308   -0.00029627
     atom  126 type  3   force =    -0.00037545    0.00028479   -0.00039580
     atom  127 type  3   force =     0.00018255   -0.00041379   -0.00059217
     atom  128 type  3   force =    -0.00025351    0.00053126   -0.00063400
     atom  129 type  1   force =     0.00063825    0.00036310   -0.00013145
     atom  130 type  2   force =     0.00035291   -0.00004385   -0.00029754
     atom  131 type  2   force =     0.00005641    0.00035134    0.00003087
     atom  132 type  2   force =    -0.00031619   -0.00013019    0.00003895
     atom  133 type  2   force =    -0.00031540    0.00008703    0.00010678
     atom  134 type  2   force =     0.00006283    0.00021192    0.00002587
     atom  135 type  2   force =     0.00021659   -0.00015873    0.00008309
     atom  136 type  2   force =     0.00079589   -0.00097417   -0.00014013
     atom  137 type  2   force =    -0.00034997   -0.00012448   -0.00028118
     atom  138 type  4   force =    -0.00034677    0.00003673   -0.00036620
     atom  139 type  4   force =    -0.00008919   -0.00041135   -0.00017466
     atom  140 type  4   force =     0.00027445    0.00007728    0.00043259
     atom  141 type  4   force =    -0.00016645   -0.00036519    0.00020586
     atom  142 type  4   force =    -0.00033148    0.00003879   -0.00041073
     atom  143 type  4   force =    -0.00018433    0.00031050   -0.00037653
     atom  144 type  4   force =    -0.00008914    0.00013772    0.00027011
     atom  145 type  4   force =    -0.00015900    0.00042332    0.00036425
     atom  146 type  4   force =     0.00027490    0.00023805    0.00006578
     atom  147 type  4   force =    -0.00029344    0.00018486    0.00036137
     atom  148 type  4   force =     0.00021138   -0.00013678    0.00030456
     atom  149 type  4   force =    -0.00022442   -0.00010456   -0.00011678
     atom  150 type  4   force =     0.00039650    0.00011164    0.00000741
     atom  151 type  4   force =     0.00024870    0.00009925    0.00022065
     atom  152 type  4   force =    -0.00001910   -0.00006898   -0.00006787
     atom  153 type  4   force =    -0.00021923    0.00020234   -0.00021039

     Total force =     0.004806     Total SCF correction =     0.000159

     bfgs converged in  35 scf cycles and  33 bfgs steps
     (criteria: energy <  1.0E-04, force <  1.0E-03)

     End of BFGS Geometry Optimization

     Final energy   =   -1712.8340098417 Ry
Begin final coordinates

ATOMIC_POSITIONS (angstrom)
C       -0.004489717  -0.020720933   1.978384457
C       -0.002199947   1.400230994   1.978628187
C        2.455963339  -0.019435905   1.977562175
C        2.458991384   1.399289331   1.975953457
C        1.226105279   2.110365368   1.978626598
C        1.228150061   3.528893646   1.978979938
C       -0.004824187   4.238957661   1.978928523
C       -0.002148739   5.660003735   1.979115372
C        4.915865975  -0.020690113   1.976007184
C        4.918649787   1.400513301   1.971399427
C        3.687053658   2.110207337   1.971597430
C        3.689103257   3.528713344   1.971946707
C        2.456886736   4.240014439   1.976450311
C        2.459192531   5.658339607   1.976612874
C        1.225372562   6.370142713   1.978431645
C        1.227610153   7.788011945   1.977154265
C       -0.003927424   8.498270821   1.978956514
C       -0.001232521   9.919322706   1.978514173
C        7.376192213  -0.019685587   1.977490206
C        7.378761273   1.399004126   1.974844475
C        6.145260768   2.110196321   1.971034338
C        6.147593411   3.528787019   1.969584187
C        4.916453840   4.238814537   1.970528279
C        4.918397393   5.659018990   1.971951666
C        3.685699019   6.369374529   1.973280080
C        3.687985750   7.788489472   1.972352114
C        2.456850564   8.500072636   1.973255528
C        2.459071831   9.917413932   1.972495027
C        1.225306241  10.628898776   1.975640745
C        1.227664696  12.047827448   1.976388749
C       -0.003876906  12.758112315   1.978223514
C       -0.001629490  14.178942725   1.978253264
C        9.836172075  -0.020772860   1.977246393
C        9.838627458   1.400043311   1.975048803
C        8.606138242   2.109836697   1.974288625
C        8.608783954   3.529278026   1.971088490
C        7.376500592   4.240417412   1.970106184
C        7.378646943   5.657471310   1.971452004
C        6.144773435   6.369246401   1.971945827
C        6.147158028   7.788831662   1.971695688
C        4.915553274   8.499111005   1.971333650
C        4.917743628   9.918571198   1.970981237
C        3.685885793  10.628465816   1.971361225
C        3.688778244  12.048383983   1.972547814
C        2.456392817  12.759508401   1.975089152
C        2.458353042  14.177536330   1.977167408
C        1.225438245  14.889103928   1.978118148
C        1.228161087  16.309230471   1.978299668
C       12.295837936  -0.019354908   1.977727008
C       12.297757843   1.398815195   1.976138124
C       11.065253567   2.110042469   1.973245604
C       11.068075922   3.529628461   1.971473391
C        9.835990118   4.239517045   1.970487069
C        9.838144980   5.658927542   1.970895697
C        8.606798209   6.368956965   1.971366486
C        8.609311047   7.788938679   1.971756606
C        7.375379920   8.500582976   1.971611748
C        7.377602691   9.917689962   1.970926094
C        6.145207274  10.629075798   1.971627329
C        6.147883051  12.048026653   1.974740840
C        4.915181296  12.758112800   1.974847629
C        4.917771621  14.178861128   1.977068776
C        3.686746118  14.889160969   1.977719804
C        3.689379044  16.309380046   1.977798453
C       13.526448223   2.110288842   1.977361525
C       13.528668617   3.529643016   1.976490744
C       12.295022453   4.240846711   1.972874956
C       12.297314069   5.658197781   1.973194191
C       11.065993561   6.369858287   1.972010236
C       11.068350604   7.788477797   1.973062636
C        9.835520349   8.498960192   1.972009648
C        9.837500181   9.919224194   1.971214220
C        8.606505120  10.629127703   1.970628730
C        8.608769996  12.048044264   1.972002905
C        7.375434734  12.759117239   1.975541265
C        7.378083258  14.177730758   1.977815837
C        6.145595193  14.889496498   1.978043596
C        6.147790648  16.308873389   1.977745721
C       13.526394112   6.370048395   1.977119463
C       13.528612799   7.788270089   1.978288525
C       12.295074603   8.499816356   1.976519180
C       12.297409557   9.918169245   1.976634749
C       11.064983686  10.629633310   1.972442525
C       11.066989412  12.047701513   1.972316923
C        9.835325534  12.757651149   1.972158211
C        9.838092549  14.178765979   1.976373674
C        8.606293678  14.889001457   1.977947638
C        8.608481683  16.308784725   1.978033382
C       13.525873903  10.629181031   1.978913366
C       13.527943784  12.048079317   1.978547950
C       12.295289173  12.759000684   1.976289379
C       12.298241032  14.177581948   1.977910390
C       11.064679658  14.888942964   1.978149745
C       11.067346019  16.308872677   1.978048014
C       13.525917043  14.888857650   1.978466947
C       13.528649855  16.309388316   1.978396352
C        5.819337991   9.649594798   5.506879759
C        4.539625367   7.856203114   5.511857850
C        4.471950258  10.105709974   5.496844388
C        3.672792563   8.979944999   5.502177961
C        3.919049317  11.351758077   5.475710604
C        2.314194363   9.077527788   5.491580109
C        8.096367180  10.028546789   5.515780082
C        4.898251019   5.578034312   5.521765190
C       10.346153835  10.092452722   5.534154152
C        9.221690489  10.893641841   5.527064045
C        9.888640361   8.745619819   5.522344683
C       11.593301438  10.641144140   5.544562143
C        9.323885513  12.251461327   5.525961444
C        5.550868737   3.425164030   5.526097073
C        4.432189561   4.234679317   5.533634125
C        6.679585800   4.293047822   5.515710153
C        5.432878022   2.067728284   5.523768946
C        3.179321204   3.700494301   5.544982083
C       10.250046946   6.465146467   5.515909533
C       10.301226473   4.216454546   5.503391280
C       11.111122340   5.334104846   5.511791150
C        8.957742337   4.679683380   5.508413874
C       10.837032224   2.963740280   5.484297510
C       12.469328111   5.216862256   5.508427355
C        1.767210619  10.325107959   5.477082907
C        2.559512135  11.445820637   5.467398655
C        4.177668973   1.537435453   5.530496524
C        3.066262165   2.342506282   5.542720484
C       13.000388128   3.962201616   5.496167326
C       12.194588766   2.851545295   5.481519164
C       10.572471330  12.794148546   5.531606139
C       11.691392777  11.999971257   5.542054601
Zn       7.410304747   7.178278574   5.478659146
N        5.820769087   8.294633726   5.513931412
N        6.860071669  10.427031528   5.514291398
N        4.128167166   6.623923634   5.521350995
N        8.536137252   8.750425212   5.512028939
N       10.657555925   7.698331410   5.524132740
N        6.247454893   5.572198679   5.512467907
N        7.917063894   3.902791107   5.514818938
N        8.966468003   6.033996005   5.513853794
H        2.308256400   4.350444334   5.551409788
H        6.319945659   1.439346492   5.510214662
H       10.189047943   2.090602270   5.462095552
H       13.096058982   6.105344807   5.507578613
H       12.472367284  10.001454240   5.550998012
H        8.428785508  12.868234042   5.515679449
H        4.553341696  12.234447851   5.458652776
H        1.701409371   8.179265665   5.486236025
H        2.080790830   1.882926361   5.542231570
H        4.052081598   0.457521504   5.515723633
H       12.648859406   1.864425754   5.456460828
H       14.079868919   3.835858170   5.487633733
H       12.671815780  12.468415268   5.541653248
H       10.687154803  13.874905734   5.519303646
H        2.091180775  12.426550348   5.445196059
H        0.686354697  10.437209417   5.464260827
End final coordinates



     Writing output data file x0.relax.slg.l.3k.save
 
     init_run     :     47.06s CPU     49.39s WALL (       1 calls)
     electrons    :  26451.15s CPU  27553.00s WALL (      35 calls)
     update_pot   :     65.35s CPU     70.14s WALL (      34 calls)
     forces       :   2217.94s CPU   2234.03s WALL (      35 calls)

     Called by init_run:
     wfcinit      :     44.23s CPU     46.24s WALL (       1 calls)
     potinit      :      0.94s CPU      1.00s WALL (       1 calls)

     Called by electrons:
     c_bands      :  22318.57s CPU  23209.85s WALL (     330 calls)
     sum_band     :   2392.46s CPU   2539.99s WALL (     330 calls)
     v_of_rho     :     29.59s CPU     30.39s WALL (     342 calls)
     mix_rho      :   1700.79s CPU   1753.91s WALL (     330 calls)

     Called by c_bands:
     init_us_2    :     29.63s CPU     31.63s WALL (    3830 calls)
     cegterg      :  22213.28s CPU  23101.41s WALL (    1650 calls)

     Called by sum_band:

     Called by *egterg:
     h_psi        :  14387.29s CPU  15027.14s WALL (    6419 calls)
     g_psi        :     35.14s CPU     35.61s WALL (    4764 calls)
     cdiaghg      :   2801.10s CPU   2855.68s WALL (    6129 calls)

     Called by h_psi:
     add_vuspsi   :    361.92s CPU    360.69s WALL (    6419 calls)
     vhpsi        :   5647.15s CPU   5653.76s WALL (    6419 calls)

     General routines
     calbec       :   3199.59s CPU   3239.00s WALL (  248288 calls)
     fft          :     25.62s CPU     25.31s WALL (    3877 calls)
     ffts         :   1187.78s CPU   1183.43s WALL (  198968 calls)
     fftw         :   9250.46s CPU   9733.68s WALL ( 2936692 calls)
     davcio       :      0.06s CPU      1.68s WALL (      10 calls)
 
     Parallel routines
     fft_scatter  :   4947.55s CPU   6388.26s WALL ( 3139537 calls)

     Hubbard U routines
     new_ns       :    494.66s CPU    495.34s WALL (     330 calls)
     vhpsi        :   5647.15s CPU   5653.76s WALL (    6419 calls)
     force_hub    :   2090.29s CPU   2104.33s WALL (      35 calls)
 
     PWSCF        :     8h 0m CPU        8h19m WALL

 
   This run was terminated on:  16:28:54   8Sep2019            

=------------------------------------------------------------------------------=
   JOB DONE.
=------------------------------------------------------------------------------=
