
     Program PWSCF v.5.2.0 starts on  8Sep2019 at 17:58:50 

     This program is part of the open-source Quantum ESPRESSO suite
     for quantum simulation of materials; please cite
         "P. Giannozzi et al., J. Phys.:Condens. Matter 21 395502 (2009);
          URL http://www.quantum-espresso.org", 
     in publications or presentations arising from this work. More details at
     http://www.quantum-espresso.org/quote

     Parallel version (MPI & OpenMP), running on     512 processor cores
     Number of MPI processes:                64
     Threads/MPI process:                     8
     R & G space division:  proc/nbgrp/npool/nimage =      64
     Waiting for input...
     Reading input from standard input
Warning: card &IONS ignored
Warning: card    ION_DYNAMICS     = 'BFGS' , ignored
Warning: card    TRUST_RADIUS_INI =  1.D-2 , ignored
Warning: card / ignored

     Current dimensions of program PWSCF are:
     Max number of different atomic species (ntypx) = 10
     Max number of k-points (npk) =  40000
     Max angular momentum in pseudopotentials (lmaxx) =  3

     Subspace diagonalization in iterative solution of the eigenvalue problem:
     scalapack distributed-memory algorithm (size of sub-group:  5*  5 procs)

 
     Parallelization info
     --------------------
     sticks:   dense  smooth     PW     G-vecs:    dense   smooth      PW
     Min         267     267     69                33297    33297    4437
     Max         268     268     70                33304    33304    4446
     Sum       17139   17139   4479              2131249  2131249  284417
 


     bravais-lattice index     =            0
     lattice parameter (alat)  =      27.8924  a.u.
     unit-cell volume          =   33945.5266 (a.u.)^3
     number of atoms/cell      =          153
     number of atomic types    =            4
     number of electrons       =       580.00
     number of Kohn-Sham states=          320
     kinetic-energy cutoff     =      60.0000  Ry
     charge density cutoff     =     240.0000  Ry
     convergence threshold     =      1.0E-06
     mixing beta               =       0.7000
     number of iterations used =            8  local-TF  mixing
     Exchange-correlation      = SLA-PW-PBX-PBC ( 1  4  3  4 0 0)

     celldm(1)=  27.892358  celldm(2)=   0.000000  celldm(3)=   0.000000
     celldm(4)=   0.000000  celldm(5)=   0.000000  celldm(6)=   0.000000

     crystal axes: (cart. coord. in units of alat)
               a(1) = (   1.000000   0.000000   0.000000 )  
               a(2) = (   0.000000   1.154472   0.000000 )  
               a(3) = (   0.000000   0.000000   1.355014 )  

     reciprocal axes: (cart. coord. in units 2 pi/alat)
               b(1) = (  1.000000  0.000000  0.000000 )  
               b(2) = (  0.000000  0.866197  0.000000 )  
               b(3) = (  0.000000  0.000000  0.738000 )  


     PseudoPot. # 1 for Zn read from file:
     /home/sacss11/scratch/sacss11/hmah/jobs/g_znpc/pp/Zn.pbe-d-hgh.UPF
     MD5 check sum: 840b59d6b5d6b778dd7efd2cc31f93c9
     Pseudo is Norm-conserving, Zval = 12.0
     Generated in analytical, separable form
     Using radial grid of 1201 points,  6 beta functions with: 
                l(1) =   0
                l(2) =   0
                l(3) =   0
                l(4) =   1
                l(5) =   1
                l(6) =   2

     PseudoPot. # 2 for  N read from file:
     /home/sacss11/scratch/sacss11/hmah/jobs/g_znpc/pp/N.pbe-hgh.UPF
     MD5 check sum: 1504e9c56d21d37eacabc67df972de26
     Pseudo is Norm-conserving, Zval =  5.0
     Generated in analytical, separable form
     Using radial grid of 1085 points,  1 beta functions with: 
                l(1) =   0

     PseudoPot. # 3 for  C read from file:
     /home/sacss11/scratch/sacss11/hmah/jobs/g_znpc/pp/C.pbe-hgh.UPF
     MD5 check sum: ca26ff84b356733038fc2f5c468d1892
     Pseudo is Norm-conserving, Zval =  4.0
     Generated in analytical, separable form
     Using radial grid of 1073 points,  1 beta functions with: 
                l(1) =   0

     PseudoPot. # 4 for  H read from file:
     /home/sacss11/scratch/sacss11/hmah/jobs/g_znpc/pp/H.pbe-hgh.UPF
     MD5 check sum: 50ae4f52d34cf16cdfed4bce9c5a191e
     Pseudo is Norm-conserving, Zval =  1.0
     Generated in analytical, separable form
     Using radial grid of  929 points,  0 beta functions with: 

     atomic species   valence    mass     pseudopotential
        Zn            12.00    65.39000     Zn( 1.00)
        N              5.00    14.00674      N( 1.00)
        C              4.00    12.01070      C( 1.00)
        H              1.00     1.00794      H( 1.00)


     Simplified LDA+U calculation (l_max = 2) with parameters (eV):
     atomic species    L          U    alpha       J0     beta
        Zn             2     7.0000   0.0000   0.0000   0.0000
        N              1     5.5000   0.0000   0.0000   0.0000
        C              1     5.5000   0.0000   0.0000   0.0000



     No symmetry found



   Cartesian axes

     site n.     atom                  positions (alat units)
         1           C   tau(   1) = (   0.0000558  -0.0008601   0.1405242  )
         2           C   tau(   2) = (   0.0000492   0.0953317   0.1390949  )
         3           C   tau(   3) = (   0.1667572  -0.0008357   0.1395557  )
         4           C   tau(   4) = (   0.1667911   0.0953317   0.1380799  )
         5           C   tau(   5) = (   0.0834277   0.1434366   0.1378714  )
         6           C   tau(   6) = (   0.0834145   0.2396132   0.1359329  )
         7           C   tau(   7) = (   0.0000321   0.2876978   0.1352679  )
         8           C   tau(   8) = (   0.0000412   0.3839058   0.1342487  )
         9           C   tau(   9) = (   0.3333996  -0.0008250   0.1373152  )
        10           C   tau(  10) = (   0.3334092   0.0953165   0.1360410  )
        11           C   tau(  11) = (   0.2501023   0.1434283   0.1362344  )
        12           C   tau(  12) = (   0.2500939   0.2395851   0.1348788  )
        13           C   tau(  13) = (   0.1667814   0.2876945   0.1347860  )
        14           C   tau(  14) = (   0.1667658   0.3838834   0.1339424  )
        15           C   tau(  15) = (   0.0834115   0.4320239   0.1339205  )
        16           C   tau(  16) = (   0.0834255   0.5281912   0.1338676  )
        17           C   tau(  17) = (   0.0000674   0.5763418   0.1342324  )
        18           C   tau(  18) = (   0.0000802   0.6725188   0.1352302  )
        19           C   tau(  19) = (   0.5000539  -0.0008650   0.1362736  )
        20           C   tau(  20) = (   0.5000485   0.0953246   0.1353580  )
        21           C   tau(  21) = (   0.4167279   0.1434301   0.1349059  )
        22           C   tau(  22) = (   0.4167443   0.2395939   0.1340127  )
        23           C   tau(  23) = (   0.3334051   0.2876979   0.1339836  )
        24           C   tau(  24) = (   0.3333737   0.3838824   0.1333910  )
        25           C   tau(  25) = (   0.2500608   0.4320157   0.1334590  )
        26           C   tau(  26) = (   0.2500450   0.5281811   0.1333799  )
        27           C   tau(  27) = (   0.1667516   0.5763543   0.1337767  )
        28           C   tau(  28) = (   0.1667460   0.6724951   0.1346284  )
        29           C   tau(  29) = (   0.0834270   0.7206199   0.1357842  )
        30           C   tau(  30) = (   0.0834184   0.8167747   0.1377766  )
        31           C   tau(  31) = (   0.0000664   0.8648821   0.1390267  )
        32           C   tau(  32) = (   0.0000578   0.9611031   0.1404886  )
        33           C   tau(  33) = (   0.6667219  -0.0008654   0.1374030  )
        34           C   tau(  34) = (   0.6667326   0.0953140   0.1362951  )
        35           C   tau(  35) = (   0.5833868   0.1434498   0.1351051  )
        36           C   tau(  36) = (   0.5834006   0.2396013   0.1340195  )
        37           C   tau(  37) = (   0.5000725   0.2876862   0.1334993  )
        38           C   tau(  38) = (   0.5000681   0.3838869   0.1329571  )
        39           C   tau(  39) = (   0.4167131   0.4320197   0.1329202  )
        40           C   tau(  40) = (   0.4166966   0.5281855   0.1328691  )
        41           C   tau(  41) = (   0.3333587   0.5763425   0.1332634  )
        42           C   tau(  42) = (   0.3333618   0.6724872   0.1339047  )
        43           C   tau(  43) = (   0.2500421   0.7206128   0.1348276  )
        44           C   tau(  44) = (   0.2500511   0.8167819   0.1362997  )
        45           C   tau(  45) = (   0.1667590   0.8648868   0.1380731  )
        46           C   tau(  46) = (   0.1667491   0.9610930   0.1395517  )
        47           C   tau(  47) = (   0.0834077   1.0092572   0.1406420  )
        48           C   tau(  48) = (   0.0834111   1.1054531   0.1406445  )
        49           C   tau(  49) = (   0.8333647  -0.0008600   0.1396049  )
        50           C   tau(  50) = (   0.8333547   0.0953253   0.1381854  )
        51           C   tau(  51) = (   0.7500568   0.1434392   0.1363735  )
        52           C   tau(  52) = (   0.7500642   0.2396119   0.1348537  )
        53           C   tau(  53) = (   0.6667417   0.2877040   0.1338790  )
        54           C   tau(  54) = (   0.6667468   0.3838801   0.1332449  )
        55           C   tau(  55) = (   0.5834092   0.4320063   0.1328742  )
        56           C   tau(  56) = (   0.5833946   0.5281690   0.1329476  )
        57           C   tau(  57) = (   0.5000401   0.5763280   0.1329832  )
        58           C   tau(  58) = (   0.5000344   0.6724954   0.1335452  )
        59           C   tau(  59) = (   0.4167077   0.7206040   0.1340500  )
        60           C   tau(  60) = (   0.4167221   0.8167509   0.1351306  )
        61           C   tau(  61) = (   0.3333763   0.8648778   0.1362766  )
        62           C   tau(  62) = (   0.3333917   0.9610848   0.1373966  )
        63           C   tau(  63) = (   0.2500770   1.0092576   0.1388929  )
        64           C   tau(  64) = (   0.2500835   1.1054622   0.1388944  )
        65           C   tau(  65) = (   0.9166953   0.1434577   0.1378881  )
        66           C   tau(  66) = (   0.9166820   0.2396201   0.1358584  )
        67           C   tau(  67) = (   0.8333600   0.2877177   0.1346614  )
        68           C   tau(  68) = (   0.8333593   0.3838872   0.1337636  )
        69           C   tau(  69) = (   0.7500594   0.4320239   0.1333682  )
        70           C   tau(  70) = (   0.7500478   0.5281830   0.1334640  )
        71           C   tau(  71) = (   0.6667320   0.5763366   0.1334173  )
        72           C   tau(  72) = (   0.6667039   0.6724876   0.1340196  )
        73           C   tau(  73) = (   0.5833663   0.7206068   0.1340626  )
        74           C   tau(  74) = (   0.5833819   0.8167723   0.1349323  )
        75           C   tau(  75) = (   0.5000625   0.8648587   0.1353853  )
        76           C   tau(  76) = (   0.5000607   0.9610741   0.1362861  )
        77           C   tau(  77) = (   0.4167303   1.0092448   0.1368663  )
        78           C   tau(  78) = (   0.4167243   1.1054358   0.1368497  )
        79           C   tau(  79) = (   0.9166843   0.4320247   0.1338528  )
        80           C   tau(  80) = (   0.9166995   0.5281916   0.1338969  )
        81           C   tau(  81) = (   0.8333401   0.5763521   0.1339321  )
        82           C   tau(  82) = (   0.8333288   0.6725087   0.1347705  )
        83           C   tau(  83) = (   0.7500145   0.7206292   0.1348787  )
        84           C   tau(  84) = (   0.7500091   0.8167834   0.1362319  )
        85           C   tau(  85) = (   0.6667010   0.8648723   0.1360481  )
        86           C   tau(  86) = (   0.6667167   0.9610452   0.1373055  )
        87           C   tau(  87) = (   0.5833917   1.0092246   0.1368473  )
        88           C   tau(  88) = (   0.5833849   1.1054140   0.1368620  )
        89           C   tau(  89) = (   0.9166946   0.7206163   0.1358983  )
        90           C   tau(  90) = (   0.9166854   0.8167923   0.1378261  )
        91           C   tau(  91) = (   0.8333220   0.8648746   0.1380589  )
        92           C   tau(  92) = (   0.8333571   0.9610666   0.1395408  )
        93           C   tau(  93) = (   0.7500293   1.0092107   0.1388838  )
        94           C   tau(  94) = (   0.7500391   1.1054152   0.1389022  )
        95           C   tau(  95) = (   0.9167029   1.0092331   0.1406369  )
        96           C   tau(  96) = (   0.9167077   1.1054290   0.1406672  )
        97           C   tau(  97) = (   0.3909621   0.6534040   0.3673390  )
        98           C   tau(  98) = (   0.3043479   0.5316236   0.3674232  )
        99           C   tau(  99) = (   0.2992977   0.6844946   0.3681247  )
       100           C   tau( 100) = (   0.2449960   0.6079888   0.3681521  )
       101           C   tau( 101) = (   0.2621924   0.7689783   0.3693424  )
       102           C   tau( 102) = (   0.1530904   0.6152475   0.3694604  )
       103           C   tau( 103) = (   0.5466812   0.6785399   0.3678683  )
       104           C   tau( 104) = (   0.3308060   0.3757273   0.3681707  )
       105           C   tau( 105) = (   0.6995195   0.6836142   0.3699362  )
       106           C   tau( 106) = (   0.6231505   0.7377864   0.3696272  )
       107           C   tau( 107) = (   0.6681813   0.5919631   0.3680937  )
       108           C   tau( 108) = (   0.7839339   0.7210115   0.3718073  )
       109           C   tau( 109) = (   0.6302348   0.8298029   0.3709297  )
       110           C   tau( 110) = (   0.3761900   0.2297159   0.3696436  )
       111           C   tau( 111) = (   0.2998134   0.2841380   0.3700189  )
       112           C   tau( 112) = (   0.4528687   0.2886302   0.3678885  )
       113           C   tau( 113) = (   0.3685676   0.1377639   0.3708416  )
       114           C   tau( 114) = (   0.2153293   0.2470156   0.3718792  )
       115           C   tau( 115) = (   0.6949949   0.4365639   0.3673695  )
       116           C   tau( 116) = (   0.7010656   0.2838624   0.3680850  )
       117           C   tau( 117) = (   0.7547911   0.3607656   0.3680969  )
       118           C   tau( 118) = (   0.6090048   0.3143187   0.3673106  )
       119           C   tau( 119) = (   0.7397598   0.2000668   0.3693189  )
       120           C   tau( 120) = (   0.8468206   0.3550315   0.3694288  )
       121           C   tau( 121) = (   0.1163643   0.7000155   0.3704588  )
       122           C   tau( 122) = (   0.1700646   0.7757896   0.3703861  )
       123           C   tau( 123) = (   0.2838557   0.1011528   0.3724567  )
       124           C   tau( 124) = (   0.2081501   0.1549851   0.3729993  )
       125           C   tau( 125) = (   0.8848850   0.2709748   0.3705304  )
       126           C   tau( 126) = (   0.8319924   0.1946372   0.3704417  )
       127           C   tau( 127) = (   0.7148338   0.8667760   0.3725861  )
       128           C   tau( 128) = (   0.7906326   0.8131716   0.3730243  )
       129           Zn  tau( 129) = (   0.4979866   0.4815532   0.3651455  )
       130           N   tau( 130) = (   0.3900880   0.5623041   0.3668843  )
       131           N   tau( 131) = (   0.4624631   0.7053790   0.3677000  )
       132           N   tau( 132) = (   0.2785791   0.4470129   0.3679126  )
       133           N   tau( 133) = (   0.5768903   0.5924075   0.3669588  )
       134           N   tau( 134) = (   0.7208102   0.5210655   0.3678552  )
       135           N   tau( 135) = (   0.4221712   0.3747095   0.3669944  )
       136           N   tau( 136) = (   0.5373287   0.2624311   0.3676882  )
       137           N   tau( 137) = (   0.6094792   0.4055186   0.3668638  )
       138           H   tau( 138) = (   0.1560552   0.2906914   0.3722850  )
       139           H   tau( 139) = (   0.4289889   0.0955925   0.3703373  )
       140           H   tau( 140) = (   0.6976646   0.1396255   0.3696057  )
       141           H   tau( 141) = (   0.8877210   0.4163364   0.3698372  )
       142           H   tau( 142) = (   0.8436627   0.6779189   0.3721798  )
       143           H   tau( 143) = (   0.5695607   0.8716021   0.3704949  )
       144           H   tau( 144) = (   0.3056632   0.8284719   0.3696662  )
       145           H   tau( 145) = (   0.1111182   0.5547047   0.3698803  )
       146           H   tau( 146) = (   0.1416491   0.1232636   0.3740638  )
       147           H   tau( 147) = (   0.2757719   0.0279759   0.3729691  )
       148           H   tau( 148) = (   0.8645166   0.1286338   0.3714101  )
       149           H   tau( 149) = (   0.9581329   0.2638612   0.3716146  )
       150           H   tau( 150) = (   0.8569589   0.8450942   0.3741386  )
       151           H   tau( 151) = (   0.7227087   0.9400173   0.3732337  )
       152           H   tau( 152) = (   0.1382175   0.8422339   0.3712932  )
       153           H   tau( 153) = (   0.0432159   0.7081557   0.3714503  )

     number of k points=     5
                       cart. coord. in units 2pi/alat
        k(    1) = (   0.1666667   0.1443662  -0.3690000), wk =   0.4444444
        k(    2) = (   0.1666667  -0.4330986  -0.3690000), wk =   0.4444444
        k(    3) = (  -0.5000000   0.1443662  -0.3690000), wk =   0.4444444
        k(    4) = (  -0.5000000  -0.4330986  -0.3690000), wk =   0.2222222
        k(    5) = (  -0.1666667   0.1443662   0.3690000), wk =   0.4444444

     Dense  grid:  2131249 G-vectors     FFT dimensions: ( 144, 160, 192)

     Occupations read from input 

        2.0000   2.0000   2.0000   2.0000   2.0000   2.0000   2.0000   2.0000
        2.0000   2.0000   2.0000   2.0000   2.0000   2.0000   2.0000   2.0000
        2.0000   2.0000   2.0000   2.0000   2.0000   2.0000   2.0000   2.0000
        2.0000   2.0000   2.0000   2.0000   2.0000   2.0000   2.0000   2.0000
        2.0000   2.0000   2.0000   2.0000   2.0000   2.0000   2.0000   2.0000
        2.0000   2.0000   2.0000   2.0000   2.0000   2.0000   2.0000   2.0000
        2.0000   2.0000   2.0000   2.0000   2.0000   2.0000   2.0000   2.0000
        2.0000   2.0000   2.0000   2.0000   2.0000   2.0000   2.0000   2.0000
        2.0000   2.0000   2.0000   2.0000   2.0000   2.0000   2.0000   2.0000
        2.0000   2.0000   2.0000   2.0000   2.0000   2.0000   2.0000   2.0000
        2.0000   2.0000   2.0000   2.0000   2.0000   2.0000   2.0000   2.0000
        2.0000   2.0000   2.0000   2.0000   2.0000   2.0000   2.0000   2.0000
        2.0000   2.0000   2.0000   2.0000   2.0000   2.0000   2.0000   2.0000
        2.0000   2.0000   2.0000   2.0000   2.0000   2.0000   2.0000   2.0000
        2.0000   2.0000   2.0000   2.0000   2.0000   2.0000   2.0000   2.0000
        2.0000   2.0000   2.0000   2.0000   2.0000   2.0000   2.0000   2.0000
        2.0000   2.0000   2.0000   2.0000   2.0000   2.0000   2.0000   2.0000
        2.0000   2.0000   2.0000   2.0000   2.0000   2.0000   2.0000   2.0000
        2.0000   2.0000   2.0000   2.0000   2.0000   2.0000   2.0000   2.0000
        2.0000   2.0000   2.0000   2.0000   2.0000   2.0000   2.0000   2.0000
        2.0000   2.0000   2.0000   2.0000   2.0000   2.0000   2.0000   2.0000
        2.0000   2.0000   2.0000   2.0000   2.0000   2.0000   2.0000   2.0000
        2.0000   2.0000   2.0000   2.0000   2.0000   2.0000   2.0000   2.0000
        2.0000   2.0000   2.0000   2.0000   2.0000   2.0000   2.0000   2.0000
        2.0000   2.0000   2.0000   2.0000   2.0000   2.0000   2.0000   2.0000
        2.0000   2.0000   2.0000   2.0000   2.0000   2.0000   2.0000   2.0000
        2.0000   2.0000   2.0000   2.0000   2.0000   2.0000   2.0000   2.0000
        2.0000   2.0000   2.0000   2.0000   2.0000   2.0000   2.0000   2.0000
        2.0000   2.0000   2.0000   2.0000   2.0000   2.0000   2.0000   2.0000
        2.0000   2.0000   2.0000   2.0000   2.0000   2.0000   2.0000   2.0000
        2.0000   2.0000   2.0000   2.0000   2.0000   2.0000   2.0000   2.0000
        2.0000   2.0000   2.0000   2.0000   2.0000   2.0000   2.0000   2.0000
        2.0000   2.0000   2.0000   2.0000   2.0000   2.0000   2.0000   2.0000
        2.0000   2.0000   2.0000   2.0000   2.0000   2.0000   2.0000   2.0000
        2.0000   2.0000   2.0000   2.0000   2.0000   2.0000   2.0000   2.0000
        2.0000   2.0000   2.0000   2.0000   2.0000   2.0000   2.0000   2.0000
        2.0000   2.0000   0.0000   0.0000   0.0000   0.0000   0.0000   0.0000
        0.0000   0.0000   0.0000   0.0000   0.0000   0.0000   0.0000   0.0000
        0.0000   0.0000   0.0000   0.0000   0.0000   0.0000   0.0000   0.0000
        0.0000   0.0000   0.0000   0.0000   0.0000   0.0000   0.0000   0.0000

     Largest allocated arrays     est. size (Mb)     dimensions
        Kohn-Sham Wavefunctions        20.33 Mb     (    4164,  320)
        Atomic Hubbard wavefuncts      26.24 Mb     (    4164,  413)
        NL pseudopotentials             9.53 Mb     (    4164,  150)
        Each V/rho on FFT grid          1.05 Mb     (   69120)
        Each G-vector array             0.25 Mb     (   33304)
        G-vector shells                 0.13 Mb     (   16516)
     Largest temporary arrays     est. size (Mb)     dimensions
        Auxiliary wavefunctions        81.33 Mb     (    4164, 1280)
        Each subspace H/S matrix        1.00 Mb     (     256,  256)
        Each <psi_i|beta_j> matrix      0.73 Mb     (     150,  320)
        Arrays for rho mixing           8.44 Mb     (   69120,    8)

     Initial potential from superposition of free atoms
     Check: negative starting charge=   -0.410012

     starting charge  578.99444, renormalised to  580.00000

     negative rho (up, down):  4.107E-01 0.000E+00
     Number of +U iterations with fixed ns =  0
     Starting occupations:
 --- enter write_ns ---
 LDA+U parameters:
U( 1)     =  7.00000000
alpha( 1) =  0.00000000
U( 2)     =  5.50000000
alpha( 2) =  0.00000000
U( 3)     =  5.50000000
alpha( 3) =  0.00000000
atom    1   Tr[ns(na)] =   2.00000
    eigenvalues: 
  0.333  0.333  0.333
    eigenvectors:
  1.000  0.000  0.000
  0.000  1.000  0.000
  0.000  0.000  1.000
    occupations:
  0.333  0.000  0.000
  0.000  0.333  0.000
  0.000  0.000  0.333
atom    2   Tr[ns(na)] =   2.00000
    eigenvalues: 
  0.333  0.333  0.333
    eigenvectors:
  1.000  0.000  0.000
  0.000  1.000  0.000
  0.000  0.000  1.000
    occupations:
  0.333  0.000  0.000
  0.000  0.333  0.000
  0.000  0.000  0.333
atom    3   Tr[ns(na)] =   2.00000
    eigenvalues: 
  0.333  0.333  0.333
    eigenvectors:
  1.000  0.000  0.000
  0.000  1.000  0.000
  0.000  0.000  1.000
    occupations:
  0.333  0.000  0.000
  0.000  0.333  0.000
  0.000  0.000  0.333
atom    4   Tr[ns(na)] =   2.00000
    eigenvalues: 
  0.333  0.333  0.333
    eigenvectors:
  1.000  0.000  0.000
  0.000  1.000  0.000
  0.000  0.000  1.000
    occupations:
  0.333  0.000  0.000
  0.000  0.333  0.000
  0.000  0.000  0.333
atom    5   Tr[ns(na)] =   2.00000
    eigenvalues: 
  0.333  0.333  0.333
    eigenvectors:
  1.000  0.000  0.000
  0.000  1.000  0.000
  0.000  0.000  1.000
    occupations:
  0.333  0.000  0.000
  0.000  0.333  0.000
  0.000  0.000  0.333
atom    6   Tr[ns(na)] =   2.00000
    eigenvalues: 
  0.333  0.333  0.333
    eigenvectors:
  1.000  0.000  0.000
  0.000  1.000  0.000
  0.000  0.000  1.000
    occupations:
  0.333  0.000  0.000
  0.000  0.333  0.000
  0.000  0.000  0.333
atom    7   Tr[ns(na)] =   2.00000
    eigenvalues: 
  0.333  0.333  0.333
    eigenvectors:
  1.000  0.000  0.000
  0.000  1.000  0.000
  0.000  0.000  1.000
    occupations:
  0.333  0.000  0.000
  0.000  0.333  0.000
  0.000  0.000  0.333
atom    8   Tr[ns(na)] =   2.00000
    eigenvalues: 
  0.333  0.333  0.333
    eigenvectors:
  1.000  0.000  0.000
  0.000  1.000  0.000
  0.000  0.000  1.000
    occupations:
  0.333  0.000  0.000
  0.000  0.333  0.000
  0.000  0.000  0.333
atom    9   Tr[ns(na)] =   2.00000
    eigenvalues: 
  0.333  0.333  0.333
    eigenvectors:
  1.000  0.000  0.000
  0.000  1.000  0.000
  0.000  0.000  1.000
    occupations:
  0.333  0.000  0.000
  0.000  0.333  0.000
  0.000  0.000  0.333
atom   10   Tr[ns(na)] =   2.00000
    eigenvalues: 
  0.333  0.333  0.333
    eigenvectors:
  1.000  0.000  0.000
  0.000  1.000  0.000
  0.000  0.000  1.000
    occupations:
  0.333  0.000  0.000
  0.000  0.333  0.000
  0.000  0.000  0.333
atom   11   Tr[ns(na)] =   2.00000
    eigenvalues: 
  0.333  0.333  0.333
    eigenvectors:
  1.000  0.000  0.000
  0.000  1.000  0.000
  0.000  0.000  1.000
    occupations:
  0.333  0.000  0.000
  0.000  0.333  0.000
  0.000  0.000  0.333
atom   12   Tr[ns(na)] =   2.00000
    eigenvalues: 
  0.333  0.333  0.333
    eigenvectors:
  1.000  0.000  0.000
  0.000  1.000  0.000
  0.000  0.000  1.000
    occupations:
  0.333  0.000  0.000
  0.000  0.333  0.000
  0.000  0.000  0.333
atom   13   Tr[ns(na)] =   2.00000
    eigenvalues: 
  0.333  0.333  0.333
    eigenvectors:
  1.000  0.000  0.000
  0.000  1.000  0.000
  0.000  0.000  1.000
    occupations:
  0.333  0.000  0.000
  0.000  0.333  0.000
  0.000  0.000  0.333
atom   14   Tr[ns(na)] =   2.00000
    eigenvalues: 
  0.333  0.333  0.333
    eigenvectors:
  1.000  0.000  0.000
  0.000  1.000  0.000
  0.000  0.000  1.000
    occupations:
  0.333  0.000  0.000
  0.000  0.333  0.000
  0.000  0.000  0.333
atom   15   Tr[ns(na)] =   2.00000
    eigenvalues: 
  0.333  0.333  0.333
    eigenvectors:
  1.000  0.000  0.000
  0.000  1.000  0.000
  0.000  0.000  1.000
    occupations:
  0.333  0.000  0.000
  0.000  0.333  0.000
  0.000  0.000  0.333
atom   16   Tr[ns(na)] =   2.00000
    eigenvalues: 
  0.333  0.333  0.333
    eigenvectors:
  1.000  0.000  0.000
  0.000  1.000  0.000
  0.000  0.000  1.000
    occupations:
  0.333  0.000  0.000
  0.000  0.333  0.000
  0.000  0.000  0.333
atom   17   Tr[ns(na)] =   2.00000
    eigenvalues: 
  0.333  0.333  0.333
    eigenvectors:
  1.000  0.000  0.000
  0.000  1.000  0.000
  0.000  0.000  1.000
    occupations:
  0.333  0.000  0.000
  0.000  0.333  0.000
  0.000  0.000  0.333
atom   18   Tr[ns(na)] =   2.00000
    eigenvalues: 
  0.333  0.333  0.333
    eigenvectors:
  1.000  0.000  0.000
  0.000  1.000  0.000
  0.000  0.000  1.000
    occupations:
  0.333  0.000  0.000
  0.000  0.333  0.000
  0.000  0.000  0.333
atom   19   Tr[ns(na)] =   2.00000
    eigenvalues: 
  0.333  0.333  0.333
    eigenvectors:
  1.000  0.000  0.000
  0.000  1.000  0.000
  0.000  0.000  1.000
    occupations:
  0.333  0.000  0.000
  0.000  0.333  0.000
  0.000  0.000  0.333
atom   20   Tr[ns(na)] =   2.00000
    eigenvalues: 
  0.333  0.333  0.333
    eigenvectors:
  1.000  0.000  0.000
  0.000  1.000  0.000
  0.000  0.000  1.000
    occupations:
  0.333  0.000  0.000
  0.000  0.333  0.000
  0.000  0.000  0.333
atom   21   Tr[ns(na)] =   2.00000
    eigenvalues: 
  0.333  0.333  0.333
    eigenvectors:
  1.000  0.000  0.000
  0.000  1.000  0.000
  0.000  0.000  1.000
    occupations:
  0.333  0.000  0.000
  0.000  0.333  0.000
  0.000  0.000  0.333
atom   22   Tr[ns(na)] =   2.00000
    eigenvalues: 
  0.333  0.333  0.333
    eigenvectors:
  1.000  0.000  0.000
  0.000  1.000  0.000
  0.000  0.000  1.000
    occupations:
  0.333  0.000  0.000
  0.000  0.333  0.000
  0.000  0.000  0.333
atom   23   Tr[ns(na)] =   2.00000
    eigenvalues: 
  0.333  0.333  0.333
    eigenvectors:
  1.000  0.000  0.000
  0.000  1.000  0.000
  0.000  0.000  1.000
    occupations:
  0.333  0.000  0.000
  0.000  0.333  0.000
  0.000  0.000  0.333
atom   24   Tr[ns(na)] =   2.00000
    eigenvalues: 
  0.333  0.333  0.333
    eigenvectors:
  1.000  0.000  0.000
  0.000  1.000  0.000
  0.000  0.000  1.000
    occupations:
  0.333  0.000  0.000
  0.000  0.333  0.000
  0.000  0.000  0.333
atom   25   Tr[ns(na)] =   2.00000
    eigenvalues: 
  0.333  0.333  0.333
    eigenvectors:
  1.000  0.000  0.000
  0.000  1.000  0.000
  0.000  0.000  1.000
    occupations:
  0.333  0.000  0.000
  0.000  0.333  0.000
  0.000  0.000  0.333
atom   26   Tr[ns(na)] =   2.00000
    eigenvalues: 
  0.333  0.333  0.333
    eigenvectors:
  1.000  0.000  0.000
  0.000  1.000  0.000
  0.000  0.000  1.000
    occupations:
  0.333  0.000  0.000
  0.000  0.333  0.000
  0.000  0.000  0.333
atom   27   Tr[ns(na)] =   2.00000
    eigenvalues: 
  0.333  0.333  0.333
    eigenvectors:
  1.000  0.000  0.000
  0.000  1.000  0.000
  0.000  0.000  1.000
    occupations:
  0.333  0.000  0.000
  0.000  0.333  0.000
  0.000  0.000  0.333
atom   28   Tr[ns(na)] =   2.00000
    eigenvalues: 
  0.333  0.333  0.333
    eigenvectors:
  1.000  0.000  0.000
  0.000  1.000  0.000
  0.000  0.000  1.000
    occupations:
  0.333  0.000  0.000
  0.000  0.333  0.000
  0.000  0.000  0.333
atom   29   Tr[ns(na)] =   2.00000
    eigenvalues: 
  0.333  0.333  0.333
    eigenvectors:
  1.000  0.000  0.000
  0.000  1.000  0.000
  0.000  0.000  1.000
    occupations:
  0.333  0.000  0.000
  0.000  0.333  0.000
  0.000  0.000  0.333
atom   30   Tr[ns(na)] =   2.00000
    eigenvalues: 
  0.333  0.333  0.333
    eigenvectors:
  1.000  0.000  0.000
  0.000  1.000  0.000
  0.000  0.000  1.000
    occupations:
  0.333  0.000  0.000
  0.000  0.333  0.000
  0.000  0.000  0.333
atom   31   Tr[ns(na)] =   2.00000
    eigenvalues: 
  0.333  0.333  0.333
    eigenvectors:
  1.000  0.000  0.000
  0.000  1.000  0.000
  0.000  0.000  1.000
    occupations:
  0.333  0.000  0.000
  0.000  0.333  0.000
  0.000  0.000  0.333
atom   32   Tr[ns(na)] =   2.00000
    eigenvalues: 
  0.333  0.333  0.333
    eigenvectors:
  1.000  0.000  0.000
  0.000  1.000  0.000
  0.000  0.000  1.000
    occupations:
  0.333  0.000  0.000
  0.000  0.333  0.000
  0.000  0.000  0.333
atom   33   Tr[ns(na)] =   2.00000
    eigenvalues: 
  0.333  0.333  0.333
    eigenvectors:
  1.000  0.000  0.000
  0.000  1.000  0.000
  0.000  0.000  1.000
    occupations:
  0.333  0.000  0.000
  0.000  0.333  0.000
  0.000  0.000  0.333
atom   34   Tr[ns(na)] =   2.00000
    eigenvalues: 
  0.333  0.333  0.333
    eigenvectors:
  1.000  0.000  0.000
  0.000  1.000  0.000
  0.000  0.000  1.000
    occupations:
  0.333  0.000  0.000
  0.000  0.333  0.000
  0.000  0.000  0.333
atom   35   Tr[ns(na)] =   2.00000
    eigenvalues: 
  0.333  0.333  0.333
    eigenvectors:
  1.000  0.000  0.000
  0.000  1.000  0.000
  0.000  0.000  1.000
    occupations:
  0.333  0.000  0.000
  0.000  0.333  0.000
  0.000  0.000  0.333
atom   36   Tr[ns(na)] =   2.00000
    eigenvalues: 
  0.333  0.333  0.333
    eigenvectors:
  1.000  0.000  0.000
  0.000  1.000  0.000
  0.000  0.000  1.000
    occupations:
  0.333  0.000  0.000
  0.000  0.333  0.000
  0.000  0.000  0.333
atom   37   Tr[ns(na)] =   2.00000
    eigenvalues: 
  0.333  0.333  0.333
    eigenvectors:
  1.000  0.000  0.000
  0.000  1.000  0.000
  0.000  0.000  1.000
    occupations:
  0.333  0.000  0.000
  0.000  0.333  0.000
  0.000  0.000  0.333
atom   38   Tr[ns(na)] =   2.00000
    eigenvalues: 
  0.333  0.333  0.333
    eigenvectors:
  1.000  0.000  0.000
  0.000  1.000  0.000
  0.000  0.000  1.000
    occupations:
  0.333  0.000  0.000
  0.000  0.333  0.000
  0.000  0.000  0.333
atom   39   Tr[ns(na)] =   2.00000
    eigenvalues: 
  0.333  0.333  0.333
    eigenvectors:
  1.000  0.000  0.000
  0.000  1.000  0.000
  0.000  0.000  1.000
    occupations:
  0.333  0.000  0.000
  0.000  0.333  0.000
  0.000  0.000  0.333
atom   40   Tr[ns(na)] =   2.00000
    eigenvalues: 
  0.333  0.333  0.333
    eigenvectors:
  1.000  0.000  0.000
  0.000  1.000  0.000
  0.000  0.000  1.000
    occupations:
  0.333  0.000  0.000
  0.000  0.333  0.000
  0.000  0.000  0.333
atom   41   Tr[ns(na)] =   2.00000
    eigenvalues: 
  0.333  0.333  0.333
    eigenvectors:
  1.000  0.000  0.000
  0.000  1.000  0.000
  0.000  0.000  1.000
    occupations:
  0.333  0.000  0.000
  0.000  0.333  0.000
  0.000  0.000  0.333
atom   42   Tr[ns(na)] =   2.00000
    eigenvalues: 
  0.333  0.333  0.333
    eigenvectors:
  1.000  0.000  0.000
  0.000  1.000  0.000
  0.000  0.000  1.000
    occupations:
  0.333  0.000  0.000
  0.000  0.333  0.000
  0.000  0.000  0.333
atom   43   Tr[ns(na)] =   2.00000
    eigenvalues: 
  0.333  0.333  0.333
    eigenvectors:
  1.000  0.000  0.000
  0.000  1.000  0.000
  0.000  0.000  1.000
    occupations:
  0.333  0.000  0.000
  0.000  0.333  0.000
  0.000  0.000  0.333
atom   44   Tr[ns(na)] =   2.00000
    eigenvalues: 
  0.333  0.333  0.333
    eigenvectors:
  1.000  0.000  0.000
  0.000  1.000  0.000
  0.000  0.000  1.000
    occupations:
  0.333  0.000  0.000
  0.000  0.333  0.000
  0.000  0.000  0.333
atom   45   Tr[ns(na)] =   2.00000
    eigenvalues: 
  0.333  0.333  0.333
    eigenvectors:
  1.000  0.000  0.000
  0.000  1.000  0.000
  0.000  0.000  1.000
    occupations:
  0.333  0.000  0.000
  0.000  0.333  0.000
  0.000  0.000  0.333
atom   46   Tr[ns(na)] =   2.00000
    eigenvalues: 
  0.333  0.333  0.333
    eigenvectors:
  1.000  0.000  0.000
  0.000  1.000  0.000
  0.000  0.000  1.000
    occupations:
  0.333  0.000  0.000
  0.000  0.333  0.000
  0.000  0.000  0.333
atom   47   Tr[ns(na)] =   2.00000
    eigenvalues: 
  0.333  0.333  0.333
    eigenvectors:
  1.000  0.000  0.000
  0.000  1.000  0.000
  0.000  0.000  1.000
    occupations:
  0.333  0.000  0.000
  0.000  0.333  0.000
  0.000  0.000  0.333
atom   48   Tr[ns(na)] =   2.00000
    eigenvalues: 
  0.333  0.333  0.333
    eigenvectors:
  1.000  0.000  0.000
  0.000  1.000  0.000
  0.000  0.000  1.000
    occupations:
  0.333  0.000  0.000
  0.000  0.333  0.000
  0.000  0.000  0.333
atom   49   Tr[ns(na)] =   2.00000
    eigenvalues: 
  0.333  0.333  0.333
    eigenvectors:
  1.000  0.000  0.000
  0.000  1.000  0.000
  0.000  0.000  1.000
    occupations:
  0.333  0.000  0.000
  0.000  0.333  0.000
  0.000  0.000  0.333
atom   50   Tr[ns(na)] =   2.00000
    eigenvalues: 
  0.333  0.333  0.333
    eigenvectors:
  1.000  0.000  0.000
  0.000  1.000  0.000
  0.000  0.000  1.000
    occupations:
  0.333  0.000  0.000
  0.000  0.333  0.000
  0.000  0.000  0.333
atom   51   Tr[ns(na)] =   2.00000
    eigenvalues: 
  0.333  0.333  0.333
    eigenvectors:
  1.000  0.000  0.000
  0.000  1.000  0.000
  0.000  0.000  1.000
    occupations:
  0.333  0.000  0.000
  0.000  0.333  0.000
  0.000  0.000  0.333
atom   52   Tr[ns(na)] =   2.00000
    eigenvalues: 
  0.333  0.333  0.333
    eigenvectors:
  1.000  0.000  0.000
  0.000  1.000  0.000
  0.000  0.000  1.000
    occupations:
  0.333  0.000  0.000
  0.000  0.333  0.000
  0.000  0.000  0.333
atom   53   Tr[ns(na)] =   2.00000
    eigenvalues: 
  0.333  0.333  0.333
    eigenvectors:
  1.000  0.000  0.000
  0.000  1.000  0.000
  0.000  0.000  1.000
    occupations:
  0.333  0.000  0.000
  0.000  0.333  0.000
  0.000  0.000  0.333
atom   54   Tr[ns(na)] =   2.00000
    eigenvalues: 
  0.333  0.333  0.333
    eigenvectors:
  1.000  0.000  0.000
  0.000  1.000  0.000
  0.000  0.000  1.000
    occupations:
  0.333  0.000  0.000
  0.000  0.333  0.000
  0.000  0.000  0.333
atom   55   Tr[ns(na)] =   2.00000
    eigenvalues: 
  0.333  0.333  0.333
    eigenvectors:
  1.000  0.000  0.000
  0.000  1.000  0.000
  0.000  0.000  1.000
    occupations:
  0.333  0.000  0.000
  0.000  0.333  0.000
  0.000  0.000  0.333
atom   56   Tr[ns(na)] =   2.00000
    eigenvalues: 
  0.333  0.333  0.333
    eigenvectors:
  1.000  0.000  0.000
  0.000  1.000  0.000
  0.000  0.000  1.000
    occupations:
  0.333  0.000  0.000
  0.000  0.333  0.000
  0.000  0.000  0.333
atom   57   Tr[ns(na)] =   2.00000
    eigenvalues: 
  0.333  0.333  0.333
    eigenvectors:
  1.000  0.000  0.000
  0.000  1.000  0.000
  0.000  0.000  1.000
    occupations:
  0.333  0.000  0.000
  0.000  0.333  0.000
  0.000  0.000  0.333
atom   58   Tr[ns(na)] =   2.00000
    eigenvalues: 
  0.333  0.333  0.333
    eigenvectors:
  1.000  0.000  0.000
  0.000  1.000  0.000
  0.000  0.000  1.000
    occupations:
  0.333  0.000  0.000
  0.000  0.333  0.000
  0.000  0.000  0.333
atom   59   Tr[ns(na)] =   2.00000
    eigenvalues: 
  0.333  0.333  0.333
    eigenvectors:
  1.000  0.000  0.000
  0.000  1.000  0.000
  0.000  0.000  1.000
    occupations:
  0.333  0.000  0.000
  0.000  0.333  0.000
  0.000  0.000  0.333
atom   60   Tr[ns(na)] =   2.00000
    eigenvalues: 
  0.333  0.333  0.333
    eigenvectors:
  1.000  0.000  0.000
  0.000  1.000  0.000
  0.000  0.000  1.000
    occupations:
  0.333  0.000  0.000
  0.000  0.333  0.000
  0.000  0.000  0.333
atom   61   Tr[ns(na)] =   2.00000
    eigenvalues: 
  0.333  0.333  0.333
    eigenvectors:
  1.000  0.000  0.000
  0.000  1.000  0.000
  0.000  0.000  1.000
    occupations:
  0.333  0.000  0.000
  0.000  0.333  0.000
  0.000  0.000  0.333
atom   62   Tr[ns(na)] =   2.00000
    eigenvalues: 
  0.333  0.333  0.333
    eigenvectors:
  1.000  0.000  0.000
  0.000  1.000  0.000
  0.000  0.000  1.000
    occupations:
  0.333  0.000  0.000
  0.000  0.333  0.000
  0.000  0.000  0.333
atom   63   Tr[ns(na)] =   2.00000
    eigenvalues: 
  0.333  0.333  0.333
    eigenvectors:
  1.000  0.000  0.000
  0.000  1.000  0.000
  0.000  0.000  1.000
    occupations:
  0.333  0.000  0.000
  0.000  0.333  0.000
  0.000  0.000  0.333
atom   64   Tr[ns(na)] =   2.00000
    eigenvalues: 
  0.333  0.333  0.333
    eigenvectors:
  1.000  0.000  0.000
  0.000  1.000  0.000
  0.000  0.000  1.000
    occupations:
  0.333  0.000  0.000
  0.000  0.333  0.000
  0.000  0.000  0.333
atom   65   Tr[ns(na)] =   2.00000
    eigenvalues: 
  0.333  0.333  0.333
    eigenvectors:
  1.000  0.000  0.000
  0.000  1.000  0.000
  0.000  0.000  1.000
    occupations:
  0.333  0.000  0.000
  0.000  0.333  0.000
  0.000  0.000  0.333
atom   66   Tr[ns(na)] =   2.00000
    eigenvalues: 
  0.333  0.333  0.333
    eigenvectors:
  1.000  0.000  0.000
  0.000  1.000  0.000
  0.000  0.000  1.000
    occupations:
  0.333  0.000  0.000
  0.000  0.333  0.000
  0.000  0.000  0.333
atom   67   Tr[ns(na)] =   2.00000
    eigenvalues: 
  0.333  0.333  0.333
    eigenvectors:
  1.000  0.000  0.000
  0.000  1.000  0.000
  0.000  0.000  1.000
    occupations:
  0.333  0.000  0.000
  0.000  0.333  0.000
  0.000  0.000  0.333
atom   68   Tr[ns(na)] =   2.00000
    eigenvalues: 
  0.333  0.333  0.333
    eigenvectors:
  1.000  0.000  0.000
  0.000  1.000  0.000
  0.000  0.000  1.000
    occupations:
  0.333  0.000  0.000
  0.000  0.333  0.000
  0.000  0.000  0.333
atom   69   Tr[ns(na)] =   2.00000
    eigenvalues: 
  0.333  0.333  0.333
    eigenvectors:
  1.000  0.000  0.000
  0.000  1.000  0.000
  0.000  0.000  1.000
    occupations:
  0.333  0.000  0.000
  0.000  0.333  0.000
  0.000  0.000  0.333
atom   70   Tr[ns(na)] =   2.00000
    eigenvalues: 
  0.333  0.333  0.333
    eigenvectors:
  1.000  0.000  0.000
  0.000  1.000  0.000
  0.000  0.000  1.000
    occupations:
  0.333  0.000  0.000
  0.000  0.333  0.000
  0.000  0.000  0.333
atom   71   Tr[ns(na)] =   2.00000
    eigenvalues: 
  0.333  0.333  0.333
    eigenvectors:
  1.000  0.000  0.000
  0.000  1.000  0.000
  0.000  0.000  1.000
    occupations:
  0.333  0.000  0.000
  0.000  0.333  0.000
  0.000  0.000  0.333
atom   72   Tr[ns(na)] =   2.00000
    eigenvalues: 
  0.333  0.333  0.333
    eigenvectors:
  1.000  0.000  0.000
  0.000  1.000  0.000
  0.000  0.000  1.000
    occupations:
  0.333  0.000  0.000
  0.000  0.333  0.000
  0.000  0.000  0.333
atom   73   Tr[ns(na)] =   2.00000
    eigenvalues: 
  0.333  0.333  0.333
    eigenvectors:
  1.000  0.000  0.000
  0.000  1.000  0.000
  0.000  0.000  1.000
    occupations:
  0.333  0.000  0.000
  0.000  0.333  0.000
  0.000  0.000  0.333
atom   74   Tr[ns(na)] =   2.00000
    eigenvalues: 
  0.333  0.333  0.333
    eigenvectors:
  1.000  0.000  0.000
  0.000  1.000  0.000
  0.000  0.000  1.000
    occupations:
  0.333  0.000  0.000
  0.000  0.333  0.000
  0.000  0.000  0.333
atom   75   Tr[ns(na)] =   2.00000
    eigenvalues: 
  0.333  0.333  0.333
    eigenvectors:
  1.000  0.000  0.000
  0.000  1.000  0.000
  0.000  0.000  1.000
    occupations:
  0.333  0.000  0.000
  0.000  0.333  0.000
  0.000  0.000  0.333
atom   76   Tr[ns(na)] =   2.00000
    eigenvalues: 
  0.333  0.333  0.333
    eigenvectors:
  1.000  0.000  0.000
  0.000  1.000  0.000
  0.000  0.000  1.000
    occupations:
  0.333  0.000  0.000
  0.000  0.333  0.000
  0.000  0.000  0.333
atom   77   Tr[ns(na)] =   2.00000
    eigenvalues: 
  0.333  0.333  0.333
    eigenvectors:
  1.000  0.000  0.000
  0.000  1.000  0.000
  0.000  0.000  1.000
    occupations:
  0.333  0.000  0.000
  0.000  0.333  0.000
  0.000  0.000  0.333
atom   78   Tr[ns(na)] =   2.00000
    eigenvalues: 
  0.333  0.333  0.333
    eigenvectors:
  1.000  0.000  0.000
  0.000  1.000  0.000
  0.000  0.000  1.000
    occupations:
  0.333  0.000  0.000
  0.000  0.333  0.000
  0.000  0.000  0.333
atom   79   Tr[ns(na)] =   2.00000
    eigenvalues: 
  0.333  0.333  0.333
    eigenvectors:
  1.000  0.000  0.000
  0.000  1.000  0.000
  0.000  0.000  1.000
    occupations:
  0.333  0.000  0.000
  0.000  0.333  0.000
  0.000  0.000  0.333
atom   80   Tr[ns(na)] =   2.00000
    eigenvalues: 
  0.333  0.333  0.333
    eigenvectors:
  1.000  0.000  0.000
  0.000  1.000  0.000
  0.000  0.000  1.000
    occupations:
  0.333  0.000  0.000
  0.000  0.333  0.000
  0.000  0.000  0.333
atom   81   Tr[ns(na)] =   2.00000
    eigenvalues: 
  0.333  0.333  0.333
    eigenvectors:
  1.000  0.000  0.000
  0.000  1.000  0.000
  0.000  0.000  1.000
    occupations:
  0.333  0.000  0.000
  0.000  0.333  0.000
  0.000  0.000  0.333
atom   82   Tr[ns(na)] =   2.00000
    eigenvalues: 
  0.333  0.333  0.333
    eigenvectors:
  1.000  0.000  0.000
  0.000  1.000  0.000
  0.000  0.000  1.000
    occupations:
  0.333  0.000  0.000
  0.000  0.333  0.000
  0.000  0.000  0.333
atom   83   Tr[ns(na)] =   2.00000
    eigenvalues: 
  0.333  0.333  0.333
    eigenvectors:
  1.000  0.000  0.000
  0.000  1.000  0.000
  0.000  0.000  1.000
    occupations:
  0.333  0.000  0.000
  0.000  0.333  0.000
  0.000  0.000  0.333
atom   84   Tr[ns(na)] =   2.00000
    eigenvalues: 
  0.333  0.333  0.333
    eigenvectors:
  1.000  0.000  0.000
  0.000  1.000  0.000
  0.000  0.000  1.000
    occupations:
  0.333  0.000  0.000
  0.000  0.333  0.000
  0.000  0.000  0.333
atom   85   Tr[ns(na)] =   2.00000
    eigenvalues: 
  0.333  0.333  0.333
    eigenvectors:
  1.000  0.000  0.000
  0.000  1.000  0.000
  0.000  0.000  1.000
    occupations:
  0.333  0.000  0.000
  0.000  0.333  0.000
  0.000  0.000  0.333
atom   86   Tr[ns(na)] =   2.00000
    eigenvalues: 
  0.333  0.333  0.333
    eigenvectors:
  1.000  0.000  0.000
  0.000  1.000  0.000
  0.000  0.000  1.000
    occupations:
  0.333  0.000  0.000
  0.000  0.333  0.000
  0.000  0.000  0.333
atom   87   Tr[ns(na)] =   2.00000
    eigenvalues: 
  0.333  0.333  0.333
    eigenvectors:
  1.000  0.000  0.000
  0.000  1.000  0.000
  0.000  0.000  1.000
    occupations:
  0.333  0.000  0.000
  0.000  0.333  0.000
  0.000  0.000  0.333
atom   88   Tr[ns(na)] =   2.00000
    eigenvalues: 
  0.333  0.333  0.333
    eigenvectors:
  1.000  0.000  0.000
  0.000  1.000  0.000
  0.000  0.000  1.000
    occupations:
  0.333  0.000  0.000
  0.000  0.333  0.000
  0.000  0.000  0.333
atom   89   Tr[ns(na)] =   2.00000
    eigenvalues: 
  0.333  0.333  0.333
    eigenvectors:
  1.000  0.000  0.000
  0.000  1.000  0.000
  0.000  0.000  1.000
    occupations:
  0.333  0.000  0.000
  0.000  0.333  0.000
  0.000  0.000  0.333
atom   90   Tr[ns(na)] =   2.00000
    eigenvalues: 
  0.333  0.333  0.333
    eigenvectors:
  1.000  0.000  0.000
  0.000  1.000  0.000
  0.000  0.000  1.000
    occupations:
  0.333  0.000  0.000
  0.000  0.333  0.000
  0.000  0.000  0.333
atom   91   Tr[ns(na)] =   2.00000
    eigenvalues: 
  0.333  0.333  0.333
    eigenvectors:
  1.000  0.000  0.000
  0.000  1.000  0.000
  0.000  0.000  1.000
    occupations:
  0.333  0.000  0.000
  0.000  0.333  0.000
  0.000  0.000  0.333
atom   92   Tr[ns(na)] =   2.00000
    eigenvalues: 
  0.333  0.333  0.333
    eigenvectors:
  1.000  0.000  0.000
  0.000  1.000  0.000
  0.000  0.000  1.000
    occupations:
  0.333  0.000  0.000
  0.000  0.333  0.000
  0.000  0.000  0.333
atom   93   Tr[ns(na)] =   2.00000
    eigenvalues: 
  0.333  0.333  0.333
    eigenvectors:
  1.000  0.000  0.000
  0.000  1.000  0.000
  0.000  0.000  1.000
    occupations:
  0.333  0.000  0.000
  0.000  0.333  0.000
  0.000  0.000  0.333
atom   94   Tr[ns(na)] =   2.00000
    eigenvalues: 
  0.333  0.333  0.333
    eigenvectors:
  1.000  0.000  0.000
  0.000  1.000  0.000
  0.000  0.000  1.000
    occupations:
  0.333  0.000  0.000
  0.000  0.333  0.000
  0.000  0.000  0.333
atom   95   Tr[ns(na)] =   2.00000
    eigenvalues: 
  0.333  0.333  0.333
    eigenvectors:
  1.000  0.000  0.000
  0.000  1.000  0.000
  0.000  0.000  1.000
    occupations:
  0.333  0.000  0.000
  0.000  0.333  0.000
  0.000  0.000  0.333
atom   96   Tr[ns(na)] =   2.00000
    eigenvalues: 
  0.333  0.333  0.333
    eigenvectors:
  1.000  0.000  0.000
  0.000  1.000  0.000
  0.000  0.000  1.000
    occupations:
  0.333  0.000  0.000
  0.000  0.333  0.000
  0.000  0.000  0.333
atom   97   Tr[ns(na)] =   2.00000
    eigenvalues: 
  0.333  0.333  0.333
    eigenvectors:
  1.000  0.000  0.000
  0.000  1.000  0.000
  0.000  0.000  1.000
    occupations:
  0.333  0.000  0.000
  0.000  0.333  0.000
  0.000  0.000  0.333
atom   98   Tr[ns(na)] =   2.00000
    eigenvalues: 
  0.333  0.333  0.333
    eigenvectors:
  1.000  0.000  0.000
  0.000  1.000  0.000
  0.000  0.000  1.000
    occupations:
  0.333  0.000  0.000
  0.000  0.333  0.000
  0.000  0.000  0.333
atom   99   Tr[ns(na)] =   2.00000
    eigenvalues: 
  0.333  0.333  0.333
    eigenvectors:
  1.000  0.000  0.000
  0.000  1.000  0.000
  0.000  0.000  1.000
    occupations:
  0.333  0.000  0.000
  0.000  0.333  0.000
  0.000  0.000  0.333
atom  100   Tr[ns(na)] =   2.00000
    eigenvalues: 
  0.333  0.333  0.333
    eigenvectors:
  1.000  0.000  0.000
  0.000  1.000  0.000
  0.000  0.000  1.000
    occupations:
  0.333  0.000  0.000
  0.000  0.333  0.000
  0.000  0.000  0.333
atom  101   Tr[ns(na)] =   2.00000
    eigenvalues: 
  0.333  0.333  0.333
    eigenvectors:
  1.000  0.000  0.000
  0.000  1.000  0.000
  0.000  0.000  1.000
    occupations:
  0.333  0.000  0.000
  0.000  0.333  0.000
  0.000  0.000  0.333
atom  102   Tr[ns(na)] =   2.00000
    eigenvalues: 
  0.333  0.333  0.333
    eigenvectors:
  1.000  0.000  0.000
  0.000  1.000  0.000
  0.000  0.000  1.000
    occupations:
  0.333  0.000  0.000
  0.000  0.333  0.000
  0.000  0.000  0.333
atom  103   Tr[ns(na)] =   2.00000
    eigenvalues: 
  0.333  0.333  0.333
    eigenvectors:
  1.000  0.000  0.000
  0.000  1.000  0.000
  0.000  0.000  1.000
    occupations:
  0.333  0.000  0.000
  0.000  0.333  0.000
  0.000  0.000  0.333
atom  104   Tr[ns(na)] =   2.00000
    eigenvalues: 
  0.333  0.333  0.333
    eigenvectors:
  1.000  0.000  0.000
  0.000  1.000  0.000
  0.000  0.000  1.000
    occupations:
  0.333  0.000  0.000
  0.000  0.333  0.000
  0.000  0.000  0.333
atom  105   Tr[ns(na)] =   2.00000
    eigenvalues: 
  0.333  0.333  0.333
    eigenvectors:
  1.000  0.000  0.000
  0.000  1.000  0.000
  0.000  0.000  1.000
    occupations:
  0.333  0.000  0.000
  0.000  0.333  0.000
  0.000  0.000  0.333
atom  106   Tr[ns(na)] =   2.00000
    eigenvalues: 
  0.333  0.333  0.333
    eigenvectors:
  1.000  0.000  0.000
  0.000  1.000  0.000
  0.000  0.000  1.000
    occupations:
  0.333  0.000  0.000
  0.000  0.333  0.000
  0.000  0.000  0.333
atom  107   Tr[ns(na)] =   2.00000
    eigenvalues: 
  0.333  0.333  0.333
    eigenvectors:
  1.000  0.000  0.000
  0.000  1.000  0.000
  0.000  0.000  1.000
    occupations:
  0.333  0.000  0.000
  0.000  0.333  0.000
  0.000  0.000  0.333
atom  108   Tr[ns(na)] =   2.00000
    eigenvalues: 
  0.333  0.333  0.333
    eigenvectors:
  1.000  0.000  0.000
  0.000  1.000  0.000
  0.000  0.000  1.000
    occupations:
  0.333  0.000  0.000
  0.000  0.333  0.000
  0.000  0.000  0.333
atom  109   Tr[ns(na)] =   2.00000
    eigenvalues: 
  0.333  0.333  0.333
    eigenvectors:
  1.000  0.000  0.000
  0.000  1.000  0.000
  0.000  0.000  1.000
    occupations:
  0.333  0.000  0.000
  0.000  0.333  0.000
  0.000  0.000  0.333
atom  110   Tr[ns(na)] =   2.00000
    eigenvalues: 
  0.333  0.333  0.333
    eigenvectors:
  1.000  0.000  0.000
  0.000  1.000  0.000
  0.000  0.000  1.000
    occupations:
  0.333  0.000  0.000
  0.000  0.333  0.000
  0.000  0.000  0.333
atom  111   Tr[ns(na)] =   2.00000
    eigenvalues: 
  0.333  0.333  0.333
    eigenvectors:
  1.000  0.000  0.000
  0.000  1.000  0.000
  0.000  0.000  1.000
    occupations:
  0.333  0.000  0.000
  0.000  0.333  0.000
  0.000  0.000  0.333
atom  112   Tr[ns(na)] =   2.00000
    eigenvalues: 
  0.333  0.333  0.333
    eigenvectors:
  1.000  0.000  0.000
  0.000  1.000  0.000
  0.000  0.000  1.000
    occupations:
  0.333  0.000  0.000
  0.000  0.333  0.000
  0.000  0.000  0.333
atom  113   Tr[ns(na)] =   2.00000
    eigenvalues: 
  0.333  0.333  0.333
    eigenvectors:
  1.000  0.000  0.000
  0.000  1.000  0.000
  0.000  0.000  1.000
    occupations:
  0.333  0.000  0.000
  0.000  0.333  0.000
  0.000  0.000  0.333
atom  114   Tr[ns(na)] =   2.00000
    eigenvalues: 
  0.333  0.333  0.333
    eigenvectors:
  1.000  0.000  0.000
  0.000  1.000  0.000
  0.000  0.000  1.000
    occupations:
  0.333  0.000  0.000
  0.000  0.333  0.000
  0.000  0.000  0.333
atom  115   Tr[ns(na)] =   2.00000
    eigenvalues: 
  0.333  0.333  0.333
    eigenvectors:
  1.000  0.000  0.000
  0.000  1.000  0.000
  0.000  0.000  1.000
    occupations:
  0.333  0.000  0.000
  0.000  0.333  0.000
  0.000  0.000  0.333
atom  116   Tr[ns(na)] =   2.00000
    eigenvalues: 
  0.333  0.333  0.333
    eigenvectors:
  1.000  0.000  0.000
  0.000  1.000  0.000
  0.000  0.000  1.000
    occupations:
  0.333  0.000  0.000
  0.000  0.333  0.000
  0.000  0.000  0.333
atom  117   Tr[ns(na)] =   2.00000
    eigenvalues: 
  0.333  0.333  0.333
    eigenvectors:
  1.000  0.000  0.000
  0.000  1.000  0.000
  0.000  0.000  1.000
    occupations:
  0.333  0.000  0.000
  0.000  0.333  0.000
  0.000  0.000  0.333
atom  118   Tr[ns(na)] =   2.00000
    eigenvalues: 
  0.333  0.333  0.333
    eigenvectors:
  1.000  0.000  0.000
  0.000  1.000  0.000
  0.000  0.000  1.000
    occupations:
  0.333  0.000  0.000
  0.000  0.333  0.000
  0.000  0.000  0.333
atom  119   Tr[ns(na)] =   2.00000
    eigenvalues: 
  0.333  0.333  0.333
    eigenvectors:
  1.000  0.000  0.000
  0.000  1.000  0.000
  0.000  0.000  1.000
    occupations:
  0.333  0.000  0.000
  0.000  0.333  0.000
  0.000  0.000  0.333
atom  120   Tr[ns(na)] =   2.00000
    eigenvalues: 
  0.333  0.333  0.333
    eigenvectors:
  1.000  0.000  0.000
  0.000  1.000  0.000
  0.000  0.000  1.000
    occupations:
  0.333  0.000  0.000
  0.000  0.333  0.000
  0.000  0.000  0.333
atom  121   Tr[ns(na)] =   2.00000
    eigenvalues: 
  0.333  0.333  0.333
    eigenvectors:
  1.000  0.000  0.000
  0.000  1.000  0.000
  0.000  0.000  1.000
    occupations:
  0.333  0.000  0.000
  0.000  0.333  0.000
  0.000  0.000  0.333
atom  122   Tr[ns(na)] =   2.00000
    eigenvalues: 
  0.333  0.333  0.333
    eigenvectors:
  1.000  0.000  0.000
  0.000  1.000  0.000
  0.000  0.000  1.000
    occupations:
  0.333  0.000  0.000
  0.000  0.333  0.000
  0.000  0.000  0.333
atom  123   Tr[ns(na)] =   2.00000
    eigenvalues: 
  0.333  0.333  0.333
    eigenvectors:
  1.000  0.000  0.000
  0.000  1.000  0.000
  0.000  0.000  1.000
    occupations:
  0.333  0.000  0.000
  0.000  0.333  0.000
  0.000  0.000  0.333
atom  124   Tr[ns(na)] =   2.00000
    eigenvalues: 
  0.333  0.333  0.333
    eigenvectors:
  1.000  0.000  0.000
  0.000  1.000  0.000
  0.000  0.000  1.000
    occupations:
  0.333  0.000  0.000
  0.000  0.333  0.000
  0.000  0.000  0.333
atom  125   Tr[ns(na)] =   2.00000
    eigenvalues: 
  0.333  0.333  0.333
    eigenvectors:
  1.000  0.000  0.000
  0.000  1.000  0.000
  0.000  0.000  1.000
    occupations:
  0.333  0.000  0.000
  0.000  0.333  0.000
  0.000  0.000  0.333
atom  126   Tr[ns(na)] =   2.00000
    eigenvalues: 
  0.333  0.333  0.333
    eigenvectors:
  1.000  0.000  0.000
  0.000  1.000  0.000
  0.000  0.000  1.000
    occupations:
  0.333  0.000  0.000
  0.000  0.333  0.000
  0.000  0.000  0.333
atom  127   Tr[ns(na)] =   2.00000
    eigenvalues: 
  0.333  0.333  0.333
    eigenvectors:
  1.000  0.000  0.000
  0.000  1.000  0.000
  0.000  0.000  1.000
    occupations:
  0.333  0.000  0.000
  0.000  0.333  0.000
  0.000  0.000  0.333
atom  128   Tr[ns(na)] =   2.00000
    eigenvalues: 
  0.333  0.333  0.333
    eigenvectors:
  1.000  0.000  0.000
  0.000  1.000  0.000
  0.000  0.000  1.000
    occupations:
  0.333  0.000  0.000
  0.000  0.333  0.000
  0.000  0.000  0.333
atom  129   Tr[ns(na)] =  10.00000
    eigenvalues: 
  1.000  1.000  1.000  1.000  1.000
    eigenvectors:
  1.000  0.000  0.000  0.000  0.000
  0.000  1.000  0.000  0.000  0.000
  0.000  0.000  1.000  0.000  0.000
  0.000  0.000  0.000  1.000  0.000
  0.000  0.000  0.000  0.000  1.000
    occupations:
  1.000  0.000  0.000  0.000  0.000
  0.000  1.000  0.000  0.000  0.000
  0.000  0.000  1.000  0.000  0.000
  0.000  0.000  0.000  1.000  0.000
  0.000  0.000  0.000  0.000  1.000
atom  130   Tr[ns(na)] =   3.00000
    eigenvalues: 
  0.500  0.500  0.500
    eigenvectors:
  1.000  0.000  0.000
  0.000  1.000  0.000
  0.000  0.000  1.000
    occupations:
  0.500  0.000  0.000
  0.000  0.500  0.000
  0.000  0.000  0.500
atom  131   Tr[ns(na)] =   3.00000
    eigenvalues: 
  0.500  0.500  0.500
    eigenvectors:
  1.000  0.000  0.000
  0.000  1.000  0.000
  0.000  0.000  1.000
    occupations:
  0.500  0.000  0.000
  0.000  0.500  0.000
  0.000  0.000  0.500
atom  132   Tr[ns(na)] =   3.00000
    eigenvalues: 
  0.500  0.500  0.500
    eigenvectors:
  1.000  0.000  0.000
  0.000  1.000  0.000
  0.000  0.000  1.000
    occupations:
  0.500  0.000  0.000
  0.000  0.500  0.000
  0.000  0.000  0.500
atom  133   Tr[ns(na)] =   3.00000
    eigenvalues: 
  0.500  0.500  0.500
    eigenvectors:
  1.000  0.000  0.000
  0.000  1.000  0.000
  0.000  0.000  1.000
    occupations:
  0.500  0.000  0.000
  0.000  0.500  0.000
  0.000  0.000  0.500
atom  134   Tr[ns(na)] =   3.00000
    eigenvalues: 
  0.500  0.500  0.500
    eigenvectors:
  1.000  0.000  0.000
  0.000  1.000  0.000
  0.000  0.000  1.000
    occupations:
  0.500  0.000  0.000
  0.000  0.500  0.000
  0.000  0.000  0.500
atom  135   Tr[ns(na)] =   3.00000
    eigenvalues: 
  0.500  0.500  0.500
    eigenvectors:
  1.000  0.000  0.000
  0.000  1.000  0.000
  0.000  0.000  1.000
    occupations:
  0.500  0.000  0.000
  0.000  0.500  0.000
  0.000  0.000  0.500
atom  136   Tr[ns(na)] =   3.00000
    eigenvalues: 
  0.500  0.500  0.500
    eigenvectors:
  1.000  0.000  0.000
  0.000  1.000  0.000
  0.000  0.000  1.000
    occupations:
  0.500  0.000  0.000
  0.000  0.500  0.000
  0.000  0.000  0.500
atom  137   Tr[ns(na)] =   3.00000
    eigenvalues: 
  0.500  0.500  0.500
    eigenvectors:
  1.000  0.000  0.000
  0.000  1.000  0.000
  0.000  0.000  1.000
    occupations:
  0.500  0.000  0.000
  0.000  0.500  0.000
  0.000  0.000  0.500
N of occupied +U levels =  290.000000
 --- exit write_ns ---
 Atomic wfc used for LDA+U Projector are NOT orthogonalized
     Starting wfc are  569 randomized atomic wfcs

     total cpu time spent up to now is       50.3 secs

     per-process dynamical memory:   410.4 Mb

     Self-consistent Calculation

     iteration #  1     ecut=    60.00 Ry     beta=0.70
     Davidson diagonalization with overlap
     ethr =  1.00E-02,  avg # of iterations =  3.0
 --- enter write_ns ---
 LDA+U parameters:
U( 1)     =  7.00000000
alpha( 1) =  0.00000000
U( 2)     =  5.50000000
alpha( 2) =  0.00000000
U( 3)     =  5.50000000
alpha( 3) =  0.00000000
atom    1   Tr[ns(na)] =   4.79329
    eigenvalues: 
  0.711  0.843  0.843
    eigenvectors:
  1.000  0.000  0.000
  0.000  0.000  1.000
  0.000  1.000  0.000
    occupations:
  0.711  0.000  0.001
  0.000  0.843  0.000
  0.001  0.000  0.843
atom    2   Tr[ns(na)] =   4.79918
    eigenvalues: 
  0.714  0.842  0.843
    eigenvectors:
  1.000  0.000  0.000
  0.000  0.995  0.005
  0.000  0.005  0.994
    occupations:
  0.714  0.000  0.002
  0.000  0.842 -0.000
  0.002 -0.000  0.843
atom    3   Tr[ns(na)] =   4.79717
    eigenvalues: 
  0.713  0.842  0.844
    eigenvectors:
  1.000  0.000  0.000
  0.000  0.284  0.715
  0.000  0.715  0.284
    occupations:
  0.713  0.001  0.001
  0.001  0.843  0.000
  0.001  0.000  0.843
atom    4   Tr[ns(na)] =   4.80678
    eigenvalues: 
  0.717  0.842  0.844
    eigenvectors:
  1.000  0.000  0.000
  0.000  0.925  0.075
  0.000  0.075  0.925
    occupations:
  0.717  0.001  0.002
  0.001  0.842 -0.000
  0.002 -0.000  0.844
atom    5   Tr[ns(na)] =   4.79733
    eigenvalues: 
  0.713  0.842  0.844
    eigenvectors:
  1.000  0.000  0.000
  0.000  0.040  0.960
  0.000  0.960  0.040
    occupations:
  0.713  0.000  0.002
  0.000  0.844  0.000
  0.002  0.000  0.842
atom    6   Tr[ns(na)] =   4.80644
    eigenvalues: 
  0.717  0.842  0.844
    eigenvectors:
  0.999  0.000  0.000
  0.000  0.837  0.163
  0.001  0.163  0.837
    occupations:
  0.717 -0.000  0.003
 -0.000  0.842 -0.001
  0.003 -0.001  0.844
atom    7   Tr[ns(na)] =   4.80120
    eigenvalues: 
  0.714  0.842  0.844
    eigenvectors:
  1.000  0.000  0.000
  0.000  0.000  1.000
  0.000  1.000  0.000
    occupations:
  0.714  0.001  0.001
  0.001  0.844  0.000
  0.001  0.000  0.842
atom    8   Tr[ns(na)] =   4.80616
    eigenvalues: 
  0.717  0.842  0.843
    eigenvectors:
  1.000  0.000  0.000
  0.000  0.992  0.008
  0.000  0.008  0.992
    occupations:
  0.717  0.000  0.002
  0.000  0.842  0.000
  0.002  0.000  0.843
atom    9   Tr[ns(na)] =   4.80234
    eigenvalues: 
  0.715  0.842  0.844
    eigenvectors:
  1.000  0.000  0.000
  0.000  0.122  0.877
  0.000  0.878  0.122
    occupations:
  0.715  0.002  0.001
  0.002  0.843  0.000
  0.001  0.000  0.843
atom   10   Tr[ns(na)] =   4.81399
    eigenvalues: 
  0.720  0.842  0.845
    eigenvectors:
  1.000  0.000  0.000
  0.000  0.952  0.048
  0.000  0.048  0.952
    occupations:
  0.720  0.001  0.001
  0.001  0.842 -0.001
  0.001 -0.001  0.845
atom   11   Tr[ns(na)] =   4.81280
    eigenvalues: 
  0.719  0.842  0.845
    eigenvectors:
  1.000  0.000  0.000
  0.000  0.068  0.932
  0.000  0.932  0.068
    occupations:
  0.719  0.002  0.002
  0.002  0.845  0.001
  0.002  0.001  0.842
atom   12   Tr[ns(na)] =   4.82491
    eigenvalues: 
  0.725  0.841  0.846
    eigenvectors:
  1.000  0.000  0.000
  0.000  0.870  0.130
  0.000  0.130  0.869
    occupations:
  0.725  0.000  0.002
  0.000  0.842 -0.002
  0.002 -0.002  0.845
atom   13   Tr[ns(na)] =   4.81168
    eigenvalues: 
  0.719  0.842  0.845
    eigenvectors:
  1.000  0.000  0.000
  0.000  0.172  0.828
  0.000  0.828  0.172
    occupations:
  0.719  0.000  0.001
  0.000  0.844  0.001
  0.001  0.001  0.842
atom   14   Tr[ns(na)] =   4.81638
    eigenvalues: 
  0.722  0.841  0.845
    eigenvectors:
  1.000  0.000  0.000
  0.000  0.717  0.283
  0.000  0.283  0.716
    occupations:
  0.722 -0.000  0.001
 -0.000  0.842 -0.002
  0.001 -0.002  0.844
atom   15   Tr[ns(na)] =   4.80481
    eigenvalues: 
  0.716  0.842  0.844
    eigenvectors:
  1.000  0.000  0.000
  0.000  0.429  0.571
  0.000  0.571  0.429
    occupations:
  0.716  0.000 -0.000
  0.000  0.843  0.001
 -0.000  0.001  0.843
atom   16   Tr[ns(na)] =   4.80701
    eigenvalues: 
  0.717  0.842  0.844
    eigenvectors:
  1.000  0.000  0.000
  0.000  0.461  0.539
  0.000  0.539  0.461
    occupations:
  0.717 -0.000 -0.000
 -0.000  0.843 -0.001
 -0.000 -0.001  0.843
atom   17   Tr[ns(na)] =   4.80611
    eigenvalues: 
  0.717  0.842  0.843
    eigenvectors:
  1.000  0.000  0.000
  0.000  0.983  0.017
  0.000  0.017  0.983
    occupations:
  0.717 -0.000 -0.002
 -0.000  0.842  0.000
 -0.002  0.000  0.843
atom   18   Tr[ns(na)] =   4.80142
    eigenvalues: 
  0.714  0.842  0.844
    eigenvectors:
  1.000  0.000  0.000
  0.000  0.000  1.000
  0.000  1.000  0.000
    occupations:
  0.714 -0.000 -0.001
 -0.000  0.844  0.000
 -0.001  0.000  0.842
atom   19   Tr[ns(na)] =   4.80092
    eigenvalues: 
  0.715  0.842  0.844
    eigenvectors:
  1.000  0.000  0.000
  0.000  0.004  0.996
  0.000  0.996  0.004
    occupations:
  0.715  0.000  0.001
  0.000  0.844 -0.000
  0.001 -0.000  0.842
atom   20   Tr[ns(na)] =   4.81028
    eigenvalues: 
  0.719  0.842  0.845
    eigenvectors:
  1.000  0.000  0.000
  0.000  1.000  0.000
  0.000  0.000  1.000
    occupations:
  0.719  0.000  0.001
  0.000  0.842 -0.000
  0.001 -0.000  0.845
atom   21   Tr[ns(na)] =   4.82068
    eigenvalues: 
  0.724  0.841  0.846
    eigenvectors:
  1.000  0.000  0.000
  0.000  0.017  0.983
  0.000  0.983  0.017
    occupations:
  0.724  0.001  0.001
  0.001  0.846  0.001
  0.001  0.001  0.841
atom   22   Tr[ns(na)] =   4.84272
    eigenvalues: 
  0.733  0.841  0.847
    eigenvectors:
  1.000  0.000  0.000
  0.000  0.978  0.022
  0.000  0.022  0.978
    occupations:
  0.733  0.001  0.000
  0.001  0.841 -0.001
  0.000 -0.001  0.847
atom   23   Tr[ns(na)] =   4.84098
    eigenvalues: 
  0.732  0.841  0.847
    eigenvectors:
  1.000  0.000  0.000
  0.000  0.106  0.894
  0.000  0.894  0.106
    occupations:
  0.732  0.000  0.001
  0.000  0.847  0.002
  0.001  0.002  0.842
atom   24   Tr[ns(na)] =   4.86186
    eigenvalues: 
  0.742  0.841  0.848
    eigenvectors:
  1.000  0.000  0.000
  0.000  0.771  0.229
  0.000  0.229  0.771
    occupations:
  0.742  0.000  0.001
  0.000  0.842 -0.003
  0.001 -0.003  0.847
atom   25   Tr[ns(na)] =   4.83948
    eigenvalues: 
  0.732  0.841  0.847
    eigenvectors:
  1.000  0.000  0.000
  0.000  0.430  0.570
  0.000  0.570  0.430
    occupations:
  0.732 -0.001 -0.000
 -0.001  0.844  0.003
 -0.000  0.003  0.844
atom   26   Tr[ns(na)] =   4.84264
    eigenvalues: 
  0.733  0.841  0.847
    eigenvectors:
  1.000  0.000  0.000
  0.000  0.442  0.558
  0.000  0.558  0.442
    occupations:
  0.733 -0.001 -0.000
 -0.001  0.844 -0.003
 -0.000 -0.003  0.844
atom   27   Tr[ns(na)] =   4.82260
    eigenvalues: 
  0.724  0.841  0.846
    eigenvectors:
  1.000  0.000  0.000
  0.000  0.723  0.277
  0.000  0.277  0.723
    occupations:
  0.724 -0.000 -0.002
 -0.000  0.842  0.002
 -0.002  0.002  0.844
atom   28   Tr[ns(na)] =   4.81862
    eigenvalues: 
  0.722  0.842  0.845
    eigenvectors:
  1.000  0.000  0.000
  0.000  0.216  0.784
  0.000  0.784  0.216
    occupations:
  0.722  0.001 -0.001
  0.001  0.845 -0.001
 -0.001 -0.001  0.843
atom   29   Tr[ns(na)] =   4.81238
    eigenvalues: 
  0.720  0.842  0.844
    eigenvectors:
  1.000  0.000  0.000
  0.000  0.899  0.101
  0.000  0.101  0.899
    occupations:
  0.720 -0.000 -0.003
 -0.000  0.842  0.001
 -0.003  0.001  0.844
atom   30   Tr[ns(na)] =   4.80105
    eigenvalues: 
  0.714  0.842  0.844
    eigenvectors:
  1.000  0.000  0.000
  0.000  0.080  0.920
  0.000  0.920  0.080
    occupations:
  0.714  0.000 -0.002
  0.000  0.844 -0.000
 -0.002 -0.000  0.842
atom   31   Tr[ns(na)] =   4.79903
    eigenvalues: 
  0.714  0.842  0.843
    eigenvectors:
  1.000  0.000  0.000
  0.000  0.995  0.005
  0.000  0.005  0.995
    occupations:
  0.714 -0.000 -0.002
 -0.000  0.842 -0.000
 -0.002 -0.000  0.843
atom   32   Tr[ns(na)] =   4.79324
    eigenvalues: 
  0.711  0.843  0.843
    eigenvectors:
  1.000  0.000  0.000
  0.000  0.000  1.000
  0.000  1.000  0.000
    occupations:
  0.711  0.000 -0.001
  0.000  0.843 -0.000
 -0.001 -0.000  0.843
atom   33   Tr[ns(na)] =   4.79838
    eigenvalues: 
  0.714  0.842  0.843
    eigenvectors:
  1.000  0.000  0.000
  0.000  0.104  0.896
  0.000  0.896  0.104
    occupations:
  0.714 -0.002  0.001
 -0.002  0.843 -0.000
  0.001 -0.000  0.842
atom   34   Tr[ns(na)] =   4.80678
    eigenvalues: 
  0.717  0.841  0.845
    eigenvectors:
  1.000  0.000  0.000
  0.000  0.934  0.066
  0.000  0.066  0.934
    occupations:
  0.717 -0.001  0.001
 -0.001  0.842  0.001
  0.001  0.001  0.845
atom   35   Tr[ns(na)] =   4.81435
    eigenvalues: 
  0.721  0.841  0.845
    eigenvectors:
  1.000  0.000  0.000
  0.000  0.012  0.988
  0.000  0.988  0.012
    occupations:
  0.721 -0.001  0.001
 -0.001  0.845 -0.000
  0.001 -0.000  0.841
atom   36   Tr[ns(na)] =   4.83984
    eigenvalues: 
  0.732  0.841  0.847
    eigenvectors:
  1.000  0.000  0.000
  0.000  0.967  0.033
  0.000  0.033  0.967
    occupations:
  0.732 -0.000  0.000
 -0.000  0.841  0.001
  0.000  0.001  0.847
atom   37   Tr[ns(na)] =   4.85845
    eigenvalues: 
  0.740  0.840  0.848
    eigenvectors:
  1.000  0.000  0.000
  0.000  0.000  1.000
  0.000  1.000  0.000
    occupations:
  0.740  0.000  0.001
  0.000  0.848 -0.000
  0.001 -0.000  0.840
atom   38   Tr[ns(na)] =   4.91433
    eigenvalues: 
  0.765  0.842  0.850
    eigenvectors:
  1.000  0.000  0.000
  0.000  1.000  0.000
  0.000  0.000  1.000
    occupations:
  0.765 -0.000 -0.001
 -0.000  0.842  0.000
 -0.001  0.000  0.850
atom   39   Tr[ns(na)] =   4.91642
    eigenvalues: 
  0.766  0.843  0.850
    eigenvectors:
  1.000  0.000  0.000
  0.000  0.247  0.753
  0.000  0.753  0.247
    occupations:
  0.766 -0.001 -0.001
 -0.001  0.848  0.003
 -0.001  0.003  0.844
atom   40   Tr[ns(na)] =   4.91906
    eigenvalues: 
  0.767  0.843  0.850
    eigenvectors:
  1.000  0.000  0.000
  0.000  0.258  0.742
  0.000  0.742  0.258
    occupations:
  0.767 -0.001  0.001
 -0.001  0.848 -0.003
  0.001 -0.003  0.844
atom   41   Tr[ns(na)] =   4.86392
    eigenvalues: 
  0.743  0.841  0.848
    eigenvectors:
  1.000  0.000  0.000
  0.000  0.768  0.232
  0.000  0.232  0.768
    occupations:
  0.743  0.000 -0.001
  0.000  0.843  0.003
 -0.001  0.003  0.847
atom   42   Tr[ns(na)] =   4.84354
    eigenvalues: 
  0.733  0.841  0.848
    eigenvectors:
  1.000  0.000  0.000
  0.000  0.111  0.889
  0.000  0.889  0.111
    occupations:
  0.733  0.000 -0.000
  0.000  0.847 -0.002
 -0.000 -0.002  0.842
atom   43   Tr[ns(na)] =   4.82515
    eigenvalues: 
  0.725  0.841  0.846
    eigenvectors:
  1.000  0.000  0.000
  0.000  0.871  0.129
  0.000  0.129  0.871
    occupations:
  0.725  0.000 -0.002
  0.000  0.842  0.002
 -0.002  0.002  0.845
atom   44   Tr[ns(na)] =   4.81129
    eigenvalues: 
  0.719  0.842  0.845
    eigenvectors:
  1.000  0.000  0.000
  0.000  0.077  0.922
  0.000  0.922  0.077
    occupations:
  0.719  0.002 -0.001
  0.002  0.845 -0.001
 -0.001 -0.001  0.842
atom   45   Tr[ns(na)] =   4.80630
    eigenvalues: 
  0.717  0.842  0.844
    eigenvectors:
  1.000  0.000  0.000
  0.000  0.939  0.061
  0.000  0.061  0.939
    occupations:
  0.717  0.001 -0.001
  0.001  0.842  0.001
 -0.001  0.001  0.844
atom   46   Tr[ns(na)] =   4.79487
    eigenvalues: 
  0.712  0.842  0.843
    eigenvectors:
  1.000  0.000  0.000
  0.000  0.246  0.754
  0.000  0.754  0.246
    occupations:
  0.712  0.001 -0.001
  0.001  0.843 -0.000
 -0.001 -0.000  0.843
atom   47   Tr[ns(na)] =   4.79535
    eigenvalues: 
  0.712  0.842  0.843
    eigenvectors:
  1.000  0.000  0.000
  0.000  0.932  0.068
  0.000  0.068  0.932
    occupations:
  0.712  0.001 -0.000
  0.001  0.842  0.000
 -0.000  0.000  0.843
atom   48   Tr[ns(na)] =   4.79482
    eigenvalues: 
  0.712  0.842  0.843
    eigenvectors:
  1.000  0.000  0.000
  0.000  0.949  0.051
  0.000  0.051  0.949
    occupations:
  0.712  0.001  0.000
  0.001  0.842 -0.000
  0.000 -0.000  0.843
atom   49   Tr[ns(na)] =   4.79480
    eigenvalues: 
  0.712  0.842  0.843
    eigenvectors:
  1.000  0.000  0.000
  0.000  0.269  0.731
  0.000  0.731  0.268
    occupations:
  0.712 -0.001  0.001
 -0.001  0.843 -0.000
  0.001 -0.000  0.843
atom   50   Tr[ns(na)] =   4.80587
    eigenvalues: 
  0.717  0.842  0.844
    eigenvectors:
  1.000  0.000  0.000
  0.000  0.944  0.056
  0.000  0.056  0.944
    occupations:
  0.717 -0.001  0.001
 -0.001  0.842  0.001
  0.001  0.001  0.844
atom   51   Tr[ns(na)] =   4.80991
    eigenvalues: 
  0.718  0.842  0.845
    eigenvectors:
  1.000  0.000  0.000
  0.000  0.079  0.921
  0.000  0.921  0.079
    occupations:
  0.718 -0.002  0.001
 -0.002  0.845 -0.001
  0.001 -0.001  0.842
atom   52   Tr[ns(na)] =   4.82467
    eigenvalues: 
  0.725  0.841  0.846
    eigenvectors:
  1.000  0.000  0.000
  0.000  0.866  0.134
  0.000  0.134  0.866
    occupations:
  0.725 -0.000  0.002
 -0.000  0.842  0.002
  0.002  0.002  0.845
atom   53   Tr[ns(na)] =   4.84180
    eigenvalues: 
  0.733  0.841  0.847
    eigenvectors:
  1.000  0.000  0.000
  0.000  0.111  0.889
  0.000  0.889  0.111
    occupations:
  0.733 -0.000  0.000
 -0.000  0.847 -0.002
  0.000 -0.002  0.841
atom   54   Tr[ns(na)] =   4.86133
    eigenvalues: 
  0.742  0.841  0.848
    eigenvectors:
  1.000  0.000  0.000
  0.000  0.765  0.235
  0.000  0.235  0.765
    occupations:
  0.742 -0.000  0.001
 -0.000  0.842  0.003
  0.001  0.003  0.846
atom   55   Tr[ns(na)] =   4.91679
    eigenvalues: 
  0.766  0.842  0.850
    eigenvectors:
  1.000  0.000  0.000
  0.000  0.254  0.746
  0.000  0.746  0.254
    occupations:
  0.766  0.001 -0.001
  0.001  0.848 -0.003
 -0.001 -0.003  0.844
atom   56   Tr[ns(na)] =   4.91482
    eigenvalues: 
  0.765  0.843  0.850
    eigenvectors:
  1.000  0.000  0.000
  0.000  0.267  0.733
  0.000  0.733  0.267
    occupations:
  0.765  0.001  0.001
  0.001  0.848  0.003
  0.001  0.003  0.844
atom   57   Tr[ns(na)] =   4.91587
    eigenvalues: 
  0.766  0.843  0.850
    eigenvectors:
  1.000  0.000  0.000
  0.000  1.000  0.000
  0.000  0.000  1.000
    occupations:
  0.766  0.000  0.001
  0.000  0.843 -0.000
  0.001 -0.000  0.850
atom   58   Tr[ns(na)] =   4.85994
    eigenvalues: 
  0.741  0.841  0.848
    eigenvectors:
  1.000  0.000  0.000
  0.000  0.000  1.000
  0.000  1.000  0.000
    occupations:
  0.741 -0.000 -0.001
 -0.000  0.848  0.000
 -0.001  0.000  0.841
atom   59   Tr[ns(na)] =   4.84126
    eigenvalues: 
  0.733  0.841  0.847
    eigenvectors:
  1.000  0.000  0.000
  0.000  0.971  0.029
  0.000  0.029  0.971
    occupations:
  0.733  0.000 -0.000
  0.000  0.841  0.001
 -0.000  0.001  0.847
atom   60   Tr[ns(na)] =   4.81524
    eigenvalues: 
  0.721  0.841  0.846
    eigenvectors:
  1.000  0.000  0.000
  0.000  0.010  0.990
  0.000  0.990  0.010
    occupations:
  0.721  0.001 -0.001
  0.001  0.846 -0.000
 -0.001 -0.000  0.841
atom   61   Tr[ns(na)] =   4.80725
    eigenvalues: 
  0.717  0.841  0.845
    eigenvectors:
  1.000  0.000  0.000
  0.000  0.935  0.065
  0.000  0.065  0.935
    occupations:
  0.717  0.001 -0.001
  0.001  0.842  0.001
 -0.001  0.001  0.845
atom   62   Tr[ns(na)] =   4.79851
    eigenvalues: 
  0.714  0.842  0.843
    eigenvectors:
  1.000  0.000  0.000
  0.000  0.083  0.917
  0.000  0.917  0.083
    occupations:
  0.714  0.002 -0.001
  0.002  0.843 -0.000
 -0.001 -0.000  0.842
atom   63   Tr[ns(na)] =   4.79701
    eigenvalues: 
  0.713  0.842  0.843
    eigenvectors:
  1.000  0.000  0.000
  0.000  0.864  0.136
  0.000  0.136  0.864
    occupations:
  0.713  0.002 -0.000
  0.002  0.842  0.000
 -0.000  0.000  0.843
atom   64   Tr[ns(na)] =   4.79837
    eigenvalues: 
  0.713  0.842  0.844
    eigenvectors:
  1.000  0.000  0.000
  0.000  0.913  0.086
  0.000  0.087  0.913
    occupations:
  0.713  0.002 -0.000
  0.002  0.842 -0.000
 -0.000 -0.000  0.843
atom   65   Tr[ns(na)] =   4.79986
    eigenvalues: 
  0.714  0.842  0.844
    eigenvectors:
  1.000  0.000  0.000
  0.000  0.088  0.912
  0.000  0.911  0.088
    occupations:
  0.714 -0.000  0.002
 -0.000  0.844 -0.000
  0.002 -0.000  0.842
atom   66   Tr[ns(na)] =   4.81219
    eigenvalues: 
  0.720  0.842  0.844
    eigenvectors:
  1.000  0.000  0.000
  0.000  0.900  0.100
  0.000  0.100  0.900
    occupations:
  0.720  0.000  0.003
  0.000  0.842  0.001
  0.003  0.001  0.844
atom   67   Tr[ns(na)] =   4.81789
    eigenvalues: 
  0.721  0.842  0.845
    eigenvectors:
  1.000  0.000  0.000
  0.000  0.194  0.806
  0.000  0.806  0.194
    occupations:
  0.721 -0.001  0.001
 -0.001  0.845 -0.001
  0.001 -0.001  0.843
atom   68   Tr[ns(na)] =   4.82222
    eigenvalues: 
  0.724  0.841  0.845
    eigenvectors:
  1.000  0.000  0.000
  0.000  0.705  0.295
  0.000  0.295  0.705
    occupations:
  0.724  0.000  0.002
  0.000  0.843  0.002
  0.002  0.002  0.844
atom   69   Tr[ns(na)] =   4.84187
    eigenvalues: 
  0.733  0.841  0.847
    eigenvectors:
  1.000  0.000  0.000
  0.000  0.428  0.572
  0.000  0.572  0.428
    occupations:
  0.733  0.001  0.000
  0.001  0.844 -0.003
  0.000 -0.003  0.844
atom   70   Tr[ns(na)] =   4.83821
    eigenvalues: 
  0.731  0.841  0.847
    eigenvectors:
  1.000  0.000  0.000
  0.000  0.443  0.557
  0.000  0.557  0.443
    occupations:
  0.731  0.001  0.000
  0.001  0.844  0.003
  0.000  0.003  0.844
atom   71   Tr[ns(na)] =   4.86045
    eigenvalues: 
  0.741  0.841  0.848
    eigenvectors:
  1.000  0.000  0.000
  0.000  0.766  0.234
  0.000  0.234  0.766
    occupations:
  0.741 -0.000 -0.001
 -0.000  0.842 -0.003
 -0.001 -0.003  0.846
atom   72   Tr[ns(na)] =   4.84111
    eigenvalues: 
  0.732  0.841  0.847
    eigenvectors:
  1.000  0.000  0.000
  0.000  0.118  0.882
  0.000  0.882  0.118
    occupations:
  0.732 -0.000 -0.001
 -0.000  0.847  0.002
 -0.001  0.002  0.842
atom   73   Tr[ns(na)] =   4.84274
    eigenvalues: 
  0.733  0.841  0.847
    eigenvectors:
  1.000  0.000  0.000
  0.000  0.974  0.026
  0.000  0.026  0.974
    occupations:
  0.733 -0.000 -0.000
 -0.000  0.841 -0.001
 -0.000 -0.001  0.847
atom   74   Tr[ns(na)] =   4.82104
    eigenvalues: 
  0.724  0.841  0.846
    eigenvectors:
  1.000  0.000  0.000
  0.000  0.019  0.981
  0.000  0.981  0.019
    occupations:
  0.724 -0.001 -0.001
 -0.001  0.846  0.001
 -0.001  0.001  0.841
atom   75   Tr[ns(na)] =   4.81092
    eigenvalues: 
  0.719  0.842  0.845
    eigenvectors:
  1.000  0.000  0.000
  0.000  1.000  0.000
  0.000  0.000  1.000
    occupations:
  0.719 -0.000 -0.000
 -0.000  0.842 -0.000
 -0.000 -0.000  0.845
atom   76   Tr[ns(na)] =   4.80081
    eigenvalues: 
  0.715  0.842  0.844
    eigenvectors:
  1.000  0.000  0.000
  0.000  0.003  0.997
  0.000  0.997  0.003
    occupations:
  0.715 -0.000 -0.001
 -0.000  0.844 -0.000
 -0.001 -0.000  0.842
atom   77   Tr[ns(na)] =   4.79878
    eigenvalues: 
  0.714  0.842  0.843
    eigenvectors:
  1.000  0.000  0.000
  0.000  0.971  0.029
  0.000  0.029  0.971
    occupations:
  0.714  0.001  0.000
  0.001  0.842  0.000
  0.000  0.000  0.843
atom   78   Tr[ns(na)] =   4.79820
    eigenvalues: 
  0.713  0.842  0.843
    eigenvectors:
  1.000  0.000  0.000
  0.000  0.941  0.059
  0.000  0.059  0.941
    occupations:
  0.713  0.001 -0.001
  0.001  0.842 -0.000
 -0.001 -0.000  0.843
atom   79   Tr[ns(na)] =   4.80782
    eigenvalues: 
  0.718  0.842  0.844
    eigenvectors:
  1.000  0.000  0.000
  0.000  0.407  0.593
  0.000  0.593  0.407
    occupations:
  0.718  0.000  0.000
  0.000  0.843 -0.001
  0.000 -0.001  0.843
atom   80   Tr[ns(na)] =   4.80409
    eigenvalues: 
  0.716  0.842  0.844
    eigenvectors:
  1.000  0.000  0.000
  0.000  0.451  0.549
  0.000  0.549  0.451
    occupations:
  0.716 -0.000  0.000
 -0.000  0.843  0.001
  0.000  0.001  0.843
atom   81   Tr[ns(na)] =   4.81632
    eigenvalues: 
  0.722  0.841  0.845
    eigenvectors:
  1.000  0.000  0.000
  0.000  0.729  0.271
  0.000  0.271  0.729
    occupations:
  0.722  0.000 -0.001
  0.000  0.842 -0.002
 -0.001 -0.002  0.844
atom   82   Tr[ns(na)] =   4.81133
    eigenvalues: 
  0.719  0.842  0.845
    eigenvectors:
  1.000  0.000  0.000
  0.000  0.180  0.820
  0.000  0.819  0.180
    occupations:
  0.719 -0.000 -0.001
 -0.000  0.844  0.001
 -0.001  0.001  0.842
atom   83   Tr[ns(na)] =   4.82418
    eigenvalues: 
  0.725  0.841  0.846
    eigenvectors:
  1.000  0.000  0.000
  0.000  0.874  0.126
  0.000  0.126  0.874
    occupations:
  0.725 -0.000 -0.002
 -0.000  0.842 -0.002
 -0.002 -0.002  0.845
atom   84   Tr[ns(na)] =   4.81304
    eigenvalues: 
  0.719  0.842  0.845
    eigenvectors:
  1.000  0.000  0.000
  0.000  0.073  0.927
  0.000  0.927  0.073
    occupations:
  0.719 -0.002 -0.002
 -0.002  0.845  0.001
 -0.002  0.001  0.842
atom   85   Tr[ns(na)] =   4.81376
    eigenvalues: 
  0.720  0.842  0.845
    eigenvectors:
  1.000  0.000  0.000
  0.000  0.952  0.048
  0.000  0.048  0.952
    occupations:
  0.720 -0.001 -0.001
 -0.001  0.842 -0.001
 -0.001 -0.001  0.845
atom   86   Tr[ns(na)] =   4.80235
    eigenvalues: 
  0.715  0.842  0.844
    eigenvectors:
  1.000  0.000  0.000
  0.000  0.117  0.883
  0.000  0.883  0.117
    occupations:
  0.715 -0.002 -0.001
 -0.002  0.844  0.000
 -0.001  0.000  0.843
atom   87   Tr[ns(na)] =   4.79898
    eigenvalues: 
  0.714  0.842  0.844
    eigenvectors:
  1.000  0.000  0.000
  0.000  0.928  0.072
  0.000  0.072  0.928
    occupations:
  0.714 -0.001  0.001
 -0.001  0.842 -0.000
  0.001 -0.000  0.843
atom   88   Tr[ns(na)] =   4.79791
    eigenvalues: 
  0.713  0.842  0.843
    eigenvectors:
  1.000  0.000  0.000
  0.000  0.972  0.028
  0.000  0.028  0.972
    occupations:
  0.713 -0.001 -0.000
 -0.001  0.842  0.000
 -0.000  0.000  0.843
atom   89   Tr[ns(na)] =   4.80603
    eigenvalues: 
  0.717  0.842  0.844
    eigenvectors:
  0.999  0.000  0.000
  0.000  0.859  0.141
  0.001  0.141  0.859
    occupations:
  0.717  0.000 -0.003
  0.000  0.842 -0.001
 -0.003 -0.001  0.844
atom   90   Tr[ns(na)] =   4.79745
    eigenvalues: 
  0.713  0.842  0.844
    eigenvectors:
  1.000  0.000  0.000
  0.000  0.033  0.967
  0.000  0.966  0.033
    occupations:
  0.713 -0.000 -0.002
 -0.000  0.844  0.000
 -0.002  0.000  0.842
atom   91   Tr[ns(na)] =   4.80689
    eigenvalues: 
  0.717  0.842  0.844
    eigenvectors:
  1.000  0.000  0.000
  0.000  0.920  0.080
  0.000  0.080  0.919
    occupations:
  0.717 -0.001 -0.002
 -0.001  0.842 -0.000
 -0.002 -0.000  0.844
atom   92   Tr[ns(na)] =   4.79717
    eigenvalues: 
  0.713  0.842  0.844
    eigenvectors:
  1.000  0.000  0.000
  0.000  0.244  0.756
  0.000  0.756  0.243
    occupations:
  0.713 -0.001 -0.001
 -0.001  0.843  0.001
 -0.001  0.001  0.843
atom   93   Tr[ns(na)] =   4.79903
    eigenvalues: 
  0.714  0.842  0.844
    eigenvectors:
  1.000  0.000  0.000
  0.000  0.913  0.087
  0.000  0.087  0.913
    occupations:
  0.714 -0.002  0.000
 -0.002  0.842 -0.000
  0.000 -0.000  0.843
atom   94   Tr[ns(na)] =   4.79646
    eigenvalues: 
  0.713  0.842  0.843
    eigenvectors:
  1.000  0.000  0.000
  0.000  0.883  0.117
  0.000  0.117  0.883
    occupations:
  0.713 -0.002  0.000
 -0.002  0.842  0.000
  0.000  0.000  0.843
atom   95   Tr[ns(na)] =   4.79536
    eigenvalues: 
  0.712  0.842  0.843
    eigenvectors:
  1.000  0.000  0.000
  0.000  0.956  0.044
  0.000  0.044  0.956
    occupations:
  0.712 -0.001 -0.000
 -0.001  0.843 -0.000
 -0.000 -0.000  0.843
atom   96   Tr[ns(na)] =   4.79469
    eigenvalues: 
  0.712  0.842  0.843
    eigenvectors:
  1.000  0.000  0.000
  0.000  0.946  0.054
  0.000  0.054  0.946
    occupations:
  0.712 -0.001  0.000
 -0.001  0.842  0.000
  0.000  0.000  0.843
atom   97   Tr[ns(na)] =   4.74217
    eigenvalues: 
  0.757  0.779  0.835
    eigenvectors:
  1.000  0.000  0.000
  0.000  0.000  1.000
  0.000  1.000  0.000
    occupations:
  0.757  0.000  0.000
  0.000  0.835  0.001
  0.000  0.001  0.779
atom   98   Tr[ns(na)] =   4.75233
    eigenvalues: 
  0.761  0.779  0.836
    eigenvectors:
  1.000  0.000  0.000
  0.000  0.892  0.108
  0.000  0.108  0.892
    occupations:
  0.761 -0.000 -0.000
 -0.000  0.785 -0.018
 -0.000 -0.018  0.830
atom   99   Tr[ns(na)] =   4.93515
    eigenvalues: 
  0.776  0.818  0.873
    eigenvectors:
  1.000  0.000  0.000
  0.000  0.744  0.256
  0.000  0.256  0.744
    occupations:
  0.776  0.001 -0.001
  0.001  0.832 -0.024
 -0.001 -0.024  0.859
[...]
    eigenvectors:
  1.000  0.000  0.000
  0.000  0.344  0.656
  0.000  0.656  0.344
    occupations:
  0.838  0.000 -0.000
  0.000  0.909 -0.028
 -0.000 -0.028  0.890
atom  131   Tr[ns(na)] =   5.19984
    eigenvalues: 
  0.775  0.881  0.944
    eigenvectors:
  1.000  0.000  0.000
  0.000  0.975  0.025
  0.000  0.025  0.975
    occupations:
  0.775 -0.000 -0.001
 -0.000  0.882 -0.010
 -0.001 -0.010  0.942
atom  132   Tr[ns(na)] =   5.20209
    eigenvalues: 
  0.776  0.881  0.944
    eigenvectors:
  1.000  0.000  0.000
  0.000  0.029  0.971
  0.000  0.971  0.029
    occupations:
  0.776  0.001  0.001
  0.001  0.942  0.011
  0.001  0.011  0.883
atom  133   Tr[ns(na)] =   5.26552
    eigenvalues: 
  0.837  0.868  0.928
    eigenvectors:
  1.000  0.000  0.000
  0.000  0.665  0.335
  0.000  0.335  0.665
    occupations:
  0.837 -0.001 -0.001
 -0.001  0.888  0.028
 -0.001  0.028  0.908
atom  134   Tr[ns(na)] =   5.20088
    eigenvalues: 
  0.775  0.881  0.944
    eigenvectors:
  1.000  0.000  0.000
  0.000  0.029  0.971
  0.000  0.971  0.029
    occupations:
  0.775 -0.001 -0.001
 -0.001  0.942  0.010
 -0.001  0.010  0.883
atom  135   Tr[ns(na)] =   5.28662
    eigenvalues: 
  0.844  0.871  0.929
    eigenvectors:
  1.000  0.000  0.000
  0.000  0.664  0.335
  0.000  0.336  0.664
    occupations:
  0.844  0.001  0.001
  0.001  0.890  0.027
  0.001  0.027  0.909
atom  136   Tr[ns(na)] =   5.20116
    eigenvalues: 
  0.775  0.881  0.944
    eigenvectors:
  1.000  0.000  0.000
  0.000  0.975  0.025
  0.000  0.025  0.975
    occupations:
  0.775  0.000  0.001
  0.000  0.883 -0.010
  0.001 -0.010  0.943
atom  137   Tr[ns(na)] =   5.27161
    eigenvalues: 
  0.837  0.869  0.929
    eigenvectors:
  1.000  0.000  0.000
  0.000  0.322  0.677
  0.000  0.678  0.322
    occupations:
  0.837 -0.000  0.000
 -0.000  0.910 -0.028
  0.000 -0.028  0.889
N of occupied +U levels =  688.918124
 --- exit write_ns ---

          k = 0.1667 0.1444-0.3690 (266428 PWs)   bands (ev):

   -25.0947 -25.0760 -25.0617 -25.0274 -23.9179 -23.3511 -23.3430 -23.1103
   -23.0808 -23.0546 -23.0346 -23.0101 -22.9808 -22.9480 -22.9214 -22.9101
   -22.8345 -22.7851 -22.7675 -22.7246 -22.6697 -22.6124 -22.5572 -22.5531
   -22.4516 -22.2723 -22.2415 -22.1529 -22.1029 -22.0848 -21.8131 -21.7195
   -21.6584 -21.6533 -21.6065 -21.4824 -21.4550 -21.3538 -21.3130 -21.2998
   -20.9321 -20.9217 -20.8804 -20.7012 -20.4733 -20.4674 -20.1769 -19.8270
   -19.7698 -19.6415 -19.5852 -19.5147 -19.4914 -19.4547 -19.4286 -19.2886
   -19.1759 -19.1019 -18.7721 -18.7429 -18.6172 -18.6077 -18.5829 -18.5626
   -18.4277 -18.3045 -17.6128 -17.5430 -17.4852 -17.3099 -17.3041 -17.2946
   -17.2471 -17.2388 -17.1511 -17.1338 -17.0693 -16.7232 -16.5486 -16.5039
   -16.4386 -16.2457 -16.2307 -16.1827 -16.0353 -15.7972 -15.7668 -15.7607
   -15.6823 -15.6023 -15.5409 -15.5267 -15.4869 -15.4794 -15.3962 -15.1881
   -15.1689 -15.0862 -15.0709 -15.0640 -14.9799 -14.9423 -14.7719 -14.5839
   -14.3370 -14.1657 -14.1162 -14.0747 -13.9861 -13.9229 -13.8524 -13.8469
   -13.8058 -13.7567 -13.6939 -13.6644 -13.5542 -13.4391 -13.2754 -13.2232
   -13.2104 -13.1837 -12.9688 -12.8836 -12.8314 -12.7509 -12.7395 -12.6021
   -12.5962 -12.4536 -12.4243 -12.2117 -12.1863 -12.1745 -12.1286 -12.1205
   -12.0909 -12.0172 -12.0149 -11.9599 -11.7750 -11.7561 -11.7037 -11.6661
   -11.6546 -11.6126 -11.5304 -11.4983 -11.4598 -11.4494 -11.4217 -11.4178
   -11.3884 -11.3689 -11.3563 -11.1578 -11.1303 -11.1178 -11.0423 -10.9879
   -10.8952 -10.8498 -10.8193 -10.7971 -10.7855 -10.7037 -10.6947 -10.6365
   -10.5434 -10.5304 -10.4334 -10.3874 -10.3702 -10.3214 -10.2438 -10.2414
   -10.1674 -10.1499 -10.0963 -10.0771 -10.0664 -10.0633 -10.0477 -10.0357
   -10.0282 -10.0217 -10.0079  -9.9291  -9.9167  -9.8862  -9.8734  -9.8227
    -9.7384  -9.7311  -9.6848  -9.6131  -9.5455  -9.5345  -9.5160  -9.4521
    -9.3080  -9.1950  -9.1625  -9.1473  -9.1231  -9.1182  -9.0328  -8.9121
    -8.9085  -8.8103  -8.7652  -8.6351  -8.5762  -8.4916  -8.4872  -8.4124
    -8.4076  -8.3975  -8.2480  -8.2319  -8.0764  -8.0542  -7.9941  -7.9688
    -7.9259  -7.8898  -7.8710  -7.8228  -7.8030  -7.7960  -7.7820  -7.7334
    -7.7120  -7.6200  -7.6025  -7.5663  -7.5201  -7.4055  -7.3584  -7.3533
    -7.2962  -7.2783  -7.2662  -7.1209  -7.0925  -7.0882  -7.0772  -7.0594
    -6.9599  -6.9158  -6.8815  -6.8484  -6.7792  -6.4647  -6.4342  -6.3817
    -6.3578  -6.3118  -6.2425  -6.1721  -6.1039  -6.0011  -5.8833  -5.7131
    -5.6484  -5.5465  -5.5034  -5.4900  -5.4801  -5.4520  -5.4062  -5.3848
    -5.3664  -5.2994  -5.2440  -5.2158  -5.1501  -5.1088  -5.0662  -5.0435
    -4.9888  -4.9393  -4.8951  -4.8090  -4.5065  -4.4047  -3.4627  -3.2631
    -3.1997  -2.6901  -2.1445  -2.1010  -1.7927  -1.7785  -1.1034  -1.0896
    -0.8527  -0.7496  -0.6962  -0.6773  -0.6193  -0.5811  -0.5560  -0.4972
    -0.2487  -0.1658   0.0672   0.1003   0.1617   0.2019   0.3475   0.3636
     0.4294   0.5124   0.6069   0.7159   0.9148   0.9927   1.1841   1.4100

          k = 0.1667-0.4331-0.3690 (266460 PWs)   bands (ev):

   -25.0947 -25.0761 -25.0618 -25.0274 -23.9169 -23.3502 -23.3437 -23.0920
   -23.0824 -23.0698 -23.0527 -23.0230 -22.9989 -22.9275 -22.9224 -22.8571
   -22.8518 -22.7896 -22.6671 -22.6316 -22.5849 -22.5541 -22.5325 -22.5149
   -22.4274 -22.4198 -22.3607 -22.3573 -22.0413 -22.0307 -21.9342 -21.9165
   -21.7816 -21.7152 -21.6937 -21.6543 -21.6287 -21.3586 -20.9603 -20.9599
   -20.8656 -20.8450 -20.4378 -20.4309 -20.2474 -20.2468 -20.1716 -20.1709
   -19.9731 -19.9659 -19.7127 -19.6959 -19.5419 -19.5245 -19.4724 -19.3652
   -19.3580 -19.1752 -18.7713 -18.7434 -18.5907 -18.5825 -18.4379 -18.3197
   -18.3124 -18.2993 -17.6844 -17.6826 -17.5737 -17.5724 -17.5379 -17.2504
   -17.2442 -16.8999 -16.8822 -16.8062 -16.8052 -16.5635 -16.5500 -16.3219
   -16.3126 -16.2338 -16.0639 -16.0637 -16.0609 -16.0537 -16.0358 -15.7957
   -15.7690 -15.7637 -15.7396 -15.7367 -15.7200 -15.7025 -15.5221 -15.0885
   -15.0678 -15.0083 -15.0057 -14.8039 -14.8013 -14.7718 -14.7510 -14.7386
   -14.5847 -14.4903 -14.4897 -14.4831 -14.4822 -14.1044 -13.7119 -13.6591
   -13.5106 -13.2838 -13.2352 -13.2244 -13.2184 -13.2074 -13.0424 -12.9628
   -12.9569 -12.9106 -12.9104 -12.8808 -12.8787 -12.8563 -12.8387 -12.8153
   -12.8150 -12.7059 -12.5420 -12.5296 -12.3851 -12.1974 -12.1831 -12.0847
   -12.0767 -12.0712 -12.0338 -11.7909 -11.7908 -11.6909 -11.6758 -11.6568
   -11.6353 -11.6260 -11.6256 -11.5984 -11.5288 -11.4946 -11.4919 -11.4904
   -11.4574 -11.3797 -11.3610 -11.3473 -11.2303 -11.1975 -11.1071 -11.1012
   -10.9888 -10.9386 -10.7788 -10.7786 -10.7645 -10.7643 -10.7040 -10.7033
   -10.7022 -10.4302 -10.3952 -10.3950 -10.3892 -10.2506 -10.2460 -10.2390
   -10.2306 -10.2105 -10.1642 -10.0754 -10.0698 -10.0473 -10.0334 -10.0127
    -9.9856  -9.9473  -9.8971  -9.8525  -9.8520  -9.7529  -9.7526  -9.7417
    -9.6706  -9.4984  -9.4970  -9.3573  -9.3570  -9.3549  -9.3439  -9.3074
    -9.2779  -9.2749  -9.1205  -9.0865  -9.0796  -9.0741  -9.0535  -9.0112
    -8.9991  -8.8929  -8.7839  -8.7838  -8.7032  -8.6568  -8.6157  -8.5583
    -8.4300  -8.3918  -8.3059  -8.1793  -8.1065  -8.0003  -7.9671  -7.9587
    -7.9529  -7.8836  -7.8829  -7.8794  -7.8712  -7.8025  -7.7944  -7.7813
    -7.7489  -7.7476  -7.7187  -7.6836  -7.5996  -7.5755  -7.5656  -7.5222
    -7.3701  -7.2800  -7.2003  -7.1887  -7.0902  -7.0704  -7.0546  -7.0314
    -6.9584  -6.7183  -6.6992  -6.5208  -6.5041  -6.4823  -6.4489  -6.3790
    -6.3654  -6.1961  -6.0577  -6.0219  -6.0136  -5.8451  -5.8170  -5.8107
    -5.7617  -5.6141  -5.6012  -5.5055  -5.4924  -5.4882  -5.4538  -5.4146
    -5.3535  -5.3354  -5.2678  -5.2428  -5.2145  -5.1395  -5.1194  -5.0658
    -5.0517  -4.9928  -4.9523  -4.9258  -4.0313  -4.0070  -3.7965  -3.7665
    -3.3880  -2.6918  -1.8564  -1.8175  -1.6310  -1.6028  -1.3684  -1.3590
    -0.7915  -0.7759  -0.5033  -0.4702  -0.3528  -0.3137  -0.3020  -0.2709
    -0.2645  -0.2255  -0.1618  -0.0781  -0.0642  -0.0203   0.0346   0.1324
     0.2153   0.3712   0.3782   0.7950   0.8304   0.8791   0.8883   1.5292

          k =-0.5000 0.1444-0.3690 (266316 PWs)   bands (ev):

   -25.0946 -25.0762 -25.0613 -25.0277 -23.9183 -23.3591 -23.3468 -23.1262
   -23.1031 -23.0936 -23.0886 -23.0623 -23.0607 -23.0526 -23.0280 -22.9652
   -22.9494 -22.7297 -22.7062 -22.6946 -22.6224 -22.6161 -22.3279 -22.3231
   -22.1807 -22.1736 -21.9759 -21.9672 -21.9378 -21.9255 -21.8008 -21.7790
   -21.7665 -21.7220 -21.6915 -21.6351 -21.5961 -21.4403 -21.4310 -21.3603
   -21.1696 -21.1569 -20.8063 -20.8041 -20.6644 -20.6636 -20.1308 -20.1297
   -19.9317 -19.9306 -19.4909 -19.4606 -19.4445 -19.1797 -18.9051 -18.9027
   -18.7692 -18.7449 -18.5985 -18.5848 -18.5118 -18.5025 -18.4839 -18.4683
   -18.4248 -18.2959 -17.9836 -17.9827 -17.5508 -17.4303 -17.4276 -17.4255
   -17.4210 -17.2832 -17.2775 -17.2566 -17.2369 -16.7864 -16.7859 -16.7256
   -16.7249 -16.2845 -16.2812 -16.2358 -16.0299 -15.8053 -15.8030 -15.7776
   -15.7647 -15.7439 -15.5209 -15.3251 -15.3163 -15.0837 -15.0615 -15.0538
   -15.0521 -14.7747 -14.7463 -14.7424 -14.7036 -14.7029 -14.5982 -14.3685
   -14.3683 -14.3040 -14.3031 -14.1104 -14.0997 -14.0906 -14.0892 -14.0672
   -13.7630 -13.7606 -13.7281 -13.6688 -13.4719 -13.3157 -13.2377 -13.2225
   -13.0962 -13.0954 -13.0830 -13.0824 -13.0197 -12.9703 -12.9700 -12.8220
   -12.8217 -12.7386 -12.5479 -12.5471 -12.4840 -12.2977 -12.1860 -12.0907
   -12.0427 -11.9233 -11.9231 -11.7250 -11.6906 -11.6896 -11.6606 -11.6509
   -11.6430 -11.6102 -11.5290 -11.5031 -11.4632 -11.3458 -11.3424 -11.3414
   -11.1242 -11.1022 -11.0615 -10.9686 -10.9449 -10.9429 -10.8595 -10.8494
   -10.8372 -10.7294 -10.7288 -10.6697 -10.6256 -10.6253 -10.5421 -10.5304
   -10.5269 -10.5268 -10.4911 -10.4816 -10.4396 -10.4187 -10.3963 -10.3369
   -10.2442 -10.2403 -10.2323 -10.2262 -10.2259 -10.1900 -10.1515 -10.1513
   -10.0859 -10.0465 -10.0363 -10.0333 -10.0287 -10.0252 -10.0173  -9.9738
    -9.9271  -9.8747  -9.7812  -9.7517  -9.7512  -9.5839  -9.5373  -9.3918
    -9.3803  -9.1241  -9.1181  -8.9828  -8.9684  -8.8628  -8.8517  -8.7869
    -8.7686  -8.7676  -8.6518  -8.6508  -8.5900  -8.5325  -8.5184  -8.5175
    -8.4703  -8.4644  -8.3601  -8.0619  -8.0092  -7.9257  -7.8845  -7.8775
    -7.8473  -7.7992  -7.7759  -7.7469  -7.7090  -7.7075  -7.6986  -7.6912
    -7.6536  -7.6121  -7.5929  -7.5811  -7.5563  -7.5322  -7.3993  -7.3282
    -7.2850  -7.2548  -7.1614  -7.1576  -7.1080  -7.0826  -7.0739  -7.0371
    -6.9720  -6.9449  -6.8732  -6.8172  -6.8075  -6.6922  -6.6499  -6.5884
    -6.5804  -6.3235  -6.2878  -6.2314  -6.2056  -6.1749  -5.9933  -5.7843
    -5.7476  -5.5465  -5.5274  -5.5018  -5.4889  -5.4756  -5.3830  -5.3714
    -5.3271  -5.3166  -5.2437  -5.1851  -5.1459  -5.0722  -4.9744  -4.9424
    -4.8496  -4.8243  -4.5244  -4.5002  -4.1799  -4.1499  -3.9407  -3.9286
    -3.3951  -2.6894  -1.8397  -1.8107  -1.5068  -1.4893  -1.2481  -1.2305
    -1.1144  -1.0997  -0.9360  -0.9200  -0.7436  -0.7297  -0.2978  -0.2912
    -0.2275  -0.0439  -0.0160   0.0924   0.1164   0.1542   0.2554   0.3689
     0.3884   0.8460   0.8531   0.8581   0.8648   1.1607   1.1826   1.5676

          k =-0.5000-0.4331-0.3690 (266312 PWs)   bands (ev):

   -25.0947 -25.0760 -25.0616 -25.0278 -23.9176 -23.3531 -23.3429 -23.1027
   -23.0936 -23.0822 -23.0709 -23.0045 -22.9964 -22.9868 -22.9857 -22.9242
   -22.9197 -22.8996 -22.8872 -22.7645 -22.5737 -22.5727 -22.5617 -22.5227
   -21.9910 -21.9793 -21.9788 -21.9721 -21.8841 -21.8786 -21.8537 -21.8372
   -21.7648 -21.6535 -21.6315 -21.5650 -21.5639 -21.5518 -21.5376 -21.3593
   -21.1060 -21.1046 -21.0999 -21.0989 -20.2861 -20.2773 -20.2730 -20.2705
   -19.5422 -19.5223 -19.5191 -19.5183 -19.4647 -19.1774 -18.9775 -18.9726
   -18.9688 -18.9661 -18.7661 -18.7417 -18.5956 -18.5795 -18.4663 -18.4577
   -18.4509 -18.4325 -18.4217 -18.2924 -17.5489 -17.2695 -17.2494 -17.1888
   -17.1872 -17.1855 -17.1828 -16.6346 -16.6344 -16.6304 -16.6302 -16.4905
   -16.4807 -16.4777 -16.4690 -16.2377 -16.0295 -15.7797 -15.7702 -15.7531
   -15.7044 -15.7012 -15.7008 -15.6985 -15.6972 -15.6955 -15.6943 -15.6927
   -15.5169 -15.0821 -15.0605 -14.7701 -14.5990 -14.1601 -14.1598 -14.1420
   -14.1398 -14.0598 -13.7764 -13.7751 -13.7725 -13.7720 -13.7225 -13.6832
   -13.6787 -13.6764 -13.6672 -13.6655 -13.5991 -13.5985 -13.5982 -13.5974
   -13.4366 -13.3299 -13.2350 -13.2279 -12.9272 -12.8880 -12.8760 -12.8757
   -12.8663 -12.8658 -12.7333 -12.1865 -12.1136 -12.0311 -11.9605 -11.9601
   -11.9599 -11.9591 -11.9569 -11.9565 -11.9560 -11.9558 -11.8729 -11.7333
   -11.6458 -11.5282 -11.5018 -11.4695 -11.4629 -11.2291 -11.1760 -11.1715
   -11.1705 -11.1619 -11.1605 -11.1361 -11.1349 -11.1347 -11.1342 -11.1084
   -11.0395 -10.9791 -10.8437 -10.7854 -10.7704 -10.7583 -10.7428 -10.7345
   -10.7264 -10.6830 -10.4460 -10.4080 -10.3987 -10.2413 -10.1700 -10.1699
   -10.1577 -10.1562 -10.0735 -10.0557 -10.0546 -10.0517 -10.0516 -10.0386
   -10.0320 -10.0218  -9.9970  -9.9902  -9.8863  -9.8562  -9.8561  -9.8449
    -9.8443  -9.5438  -9.4907  -9.4132  -9.4117  -9.4085  -9.4033  -9.3968
    -9.3256  -9.2843  -9.2833  -9.2829  -9.2827  -9.2012  -9.1017  -8.9356
    -8.8529  -8.8063  -8.6255  -8.5307  -8.5261  -8.5233  -8.5130  -8.5115
    -8.4407  -8.4108  -8.2886  -8.2873  -8.2860  -8.2776  -8.2730  -8.0268
    -7.9547  -7.8758  -7.8693  -7.8032  -7.7613  -7.7466  -7.6139  -7.5592
    -7.5210  -7.5044  -7.4765  -7.4737  -7.3726  -7.2695  -7.2482  -7.1624
    -7.1495  -7.1445  -7.1440  -7.1427  -7.1249  -7.1139  -7.0898  -7.0722
    -7.0509  -6.9371  -6.8582  -6.7682  -6.7642  -6.7628  -6.7615  -6.6513
    -6.6279  -6.6108  -6.5641  -6.1956  -6.0191  -5.9208  -5.9147  -5.8478
    -5.8285  -5.5007  -5.4981  -5.4877  -5.4664  -5.4144  -5.4041  -5.3373
    -5.2892  -5.2696  -5.2521  -5.1619  -5.1494  -5.0449  -5.0243  -4.9331
    -4.5886  -4.5723  -4.5362  -4.5165  -4.3046  -4.2888  -4.2719  -4.2504
    -3.4006  -2.6906  -1.8336  -1.8001  -1.2188  -1.2093  -1.2078  -1.1693
    -0.8913  -0.8725  -0.8626  -0.8575  -0.6677  -0.6595  -0.6524  -0.6349
    -0.2706  -0.1233  -0.1184  -0.0964  -0.0727   0.0965   0.1847   0.3443
     0.3755   0.6481   0.6685   0.6872   0.6944   1.6007   1.6053   1.6177

          k =-0.1667 0.1444 0.3690 (266428 PWs)   bands (ev):

   -25.0946 -25.0761 -25.0616 -25.0273 -23.9180 -23.3513 -23.3412 -23.1070
   -23.0869 -23.0616 -23.0388 -23.0133 -22.9801 -22.9291 -22.9252 -22.9066
   -22.8151 -22.7968 -22.7694 -22.7271 -22.6699 -22.6193 -22.5691 -22.5530
   -22.4439 -22.2715 -22.2370 -22.1464 -22.1054 -22.0867 -21.8135 -21.7331
   -21.6646 -21.6462 -21.6011 -21.4718 -21.4557 -21.3581 -21.3116 -21.3009
   -20.9312 -20.9217 -20.8833 -20.7035 -20.4719 -20.4661 -20.1776 -19.8259
   -19.7705 -19.6422 -19.5804 -19.5268 -19.4765 -19.4616 -19.4254 -19.2914
   -19.1766 -19.1023 -18.7714 -18.7444 -18.6158 -18.5972 -18.5898 -18.5652
   -18.4286 -18.3041 -17.6129 -17.5409 -17.4882 -17.3099 -17.2992 -17.2913
   -17.2487 -17.2452 -17.1517 -17.1328 -17.0690 -16.7236 -16.5491 -16.5037
   -16.4387 -16.2427 -16.2308 -16.1840 -16.0359 -15.7965 -15.7671 -15.7607
   -15.6827 -15.6050 -15.5423 -15.5188 -15.4873 -15.4824 -15.3964 -15.1873
   -15.1693 -15.0850 -15.0794 -15.0566 -14.9802 -14.9431 -14.7710 -14.5842
   -14.3367 -14.1659 -14.1155 -14.0752 -13.9859 -13.9227 -13.8529 -13.8471
   -13.8057 -13.7574 -13.6932 -13.6636 -13.5547 -13.4389 -13.2761 -13.2239
   -13.2119 -13.1832 -12.9688 -12.8805 -12.8314 -12.7507 -12.7395 -12.6021
   -12.5961 -12.4640 -12.4242 -12.2116 -12.1829 -12.1557 -12.1272 -12.0923
   -12.0885 -12.0669 -12.0160 -11.9599 -11.7750 -11.7374 -11.7030 -11.6612
   -11.6545 -11.6413 -11.5278 -11.5008 -11.4590 -11.4499 -11.4199 -11.4161
   -11.3883 -11.3689 -11.3679 -11.1471 -11.1294 -11.1057 -11.0063 -10.9807
   -10.8954 -10.8530 -10.8475 -10.8195 -10.7970 -10.7036 -10.6948 -10.6367
   -10.6281 -10.4336 -10.3900 -10.3838 -10.3703 -10.3215 -10.2433 -10.2412
   -10.1672 -10.1490 -10.1084 -10.0960 -10.0733 -10.0655 -10.0454 -10.0429
   -10.0322 -10.0218 -10.0012  -9.9577  -9.9177  -9.9042  -9.8737  -9.8275
    -9.7311  -9.6865  -9.6848  -9.6132  -9.5438  -9.5429  -9.5160  -9.4221
    -9.3054  -9.2114  -9.1948  -9.1622  -9.1231  -9.1018  -8.9957  -8.9238
    -8.9112  -8.8241  -8.7388  -8.6351  -8.5730  -8.5449  -8.4877  -8.4123
    -8.4051  -8.3447  -8.2697  -8.2322  -8.0763  -8.0595  -7.9870  -7.9688
    -7.9223  -7.8818  -7.8746  -7.8478  -7.7976  -7.7940  -7.7538  -7.7407
    -7.7175  -7.6201  -7.5997  -7.5676  -7.5202  -7.4063  -7.3585  -7.3538
    -7.3455  -7.2804  -7.2238  -7.0989  -7.0914  -7.0855  -7.0691  -7.0534
    -6.9946  -6.9583  -6.8815  -6.8301  -6.7570  -6.4515  -6.4230  -6.3971
    -6.3577  -6.3120  -6.2456  -6.1956  -6.0401  -5.9832  -5.9748  -5.6906
    -5.6155  -5.5256  -5.5104  -5.4980  -5.4869  -5.4770  -5.4479  -5.3868
    -5.3314  -5.2972  -5.2294  -5.2128  -5.1643  -5.1389  -5.0715  -5.0298
    -4.9790  -4.9331  -4.8999  -4.7844  -4.5026  -4.4221  -3.4670  -3.2465
    -3.2117  -2.6919  -2.1407  -2.1086  -1.7843  -1.7804  -1.1063  -1.0894
    -0.8479  -0.7607  -0.6940  -0.6813  -0.6146  -0.5670  -0.5620  -0.4936
    -0.2513  -0.1786   0.0296   0.1280   0.1798   0.2004   0.3344   0.3755
     0.4465   0.5071   0.6082   0.7098   0.9133   0.9935   1.1842   1.3964

     highest occupied, lowest unoccupied level (ev):    -2.6894   -2.1445

!    total energy              =   -1712.96267948 Ry
     Harris-Foulkes estimate   =   -1712.96268013 Ry
     estimated scf accuracy    <       0.00000083 Ry

     The total energy is the sum of the following terms:

     one-electron contribution =  -17198.66806528 Ry
     hartree contribution      =    8707.10729071 Ry
     xc contribution           =    -516.09425717 Ry
     ewald contribution        =    7272.35358712 Ry
     Hubbard energy            =      22.33876514 Ry

     convergence has been achieved in  19 iterations

     Writing output data file x0.scf.slg.gs.3k.save
 
     init_run     :     47.23s CPU     49.68s WALL (       1 calls)
     electrons    :   1667.17s CPU   1736.41s WALL (       1 calls)

     Called by init_run:
     wfcinit      :     44.42s CPU     46.45s WALL (       1 calls)
     potinit      :      0.96s CPU      1.01s WALL (       1 calls)

     Called by electrons:
     c_bands      :   1370.63s CPU   1425.54s WALL (      19 calls)
     sum_band     :    137.86s CPU    146.69s WALL (      19 calls)
     v_of_rho     :      1.74s CPU      1.79s WALL (      20 calls)
     mix_rho      :    156.65s CPU    161.87s WALL (      19 calls)

     Called by c_bands:
     init_us_2    :      1.68s CPU      1.79s WALL (     200 calls)
     cegterg      :   1364.77s CPU   1419.52s WALL (      95 calls)

     Called by sum_band:

     Called by *egterg:
     h_psi        :    839.96s CPU    878.76s WALL (     590 calls)
     g_psi        :      1.89s CPU      1.94s WALL (     490 calls)
     cdiaghg      :    271.80s CPU    277.32s WALL (     585 calls)

     Called by h_psi:
     add_vuspsi   :     21.78s CPU     21.75s WALL (     590 calls)
     vhpsi        :    328.56s CPU    329.39s WALL (     590 calls)

     General routines
     calbec       :    111.12s CPU    111.49s WALL (    1280 calls)
     fft          :      1.57s CPU      1.82s WALL (     219 calls)
     ffts         :    108.58s CPU    108.51s WALL (   18172 calls)
     fftw         :    538.08s CPU    567.75s WALL (  170100 calls)
     davcio       :      0.05s CPU      1.97s WALL (      10 calls)
 
     Parallel routines
     fft_scatter  :    309.24s CPU    397.06s WALL (  188491 calls)

     Hubbard U routines
     new_ns       :     28.61s CPU     28.65s WALL (      19 calls)
     vhpsi        :    328.56s CPU    329.39s WALL (     590 calls)
 
     PWSCF        : 28m38.48s CPU    29m52.68s WALL

 
   This run was terminated on:  18:28:43   8Sep2019            

=------------------------------------------------------------------------------=
   JOB DONE.
=------------------------------------------------------------------------------=
