
     Program PWSCF v.5.2.0 starts on  8Sep2019 at 15:58:36 

     This program is part of the open-source Quantum ESPRESSO suite
     for quantum simulation of materials; please cite
         "P. Giannozzi et al., J. Phys.:Condens. Matter 21 395502 (2009);
          URL http://www.quantum-espresso.org", 
     in publications or presentations arising from this work. More details at
     http://www.quantum-espresso.org/quote

     Parallel version (MPI & OpenMP), running on     512 processor cores
     Number of MPI processes:                64
     Threads/MPI process:                     8
     R & G space division:  proc/nbgrp/npool/nimage =      64
     Waiting for input...
     Reading input from standard input
Warning: card &IONS ignored
Warning: card    ION_DYNAMICS     = 'BFGS' , ignored
Warning: card    TRUST_RADIUS_INI =  1.D-2 , ignored
Warning: card / ignored

     Current dimensions of program PWSCF are:
     Max number of different atomic species (ntypx) = 10
     Max number of k-points (npk) =  40000
     Max angular momentum in pseudopotentials (lmaxx) =  3

     Subspace diagonalization in iterative solution of the eigenvalue problem:
     scalapack distributed-memory algorithm (size of sub-group:  5*  5 procs)

 
     Parallelization info
     --------------------
     sticks:   dense  smooth     PW     G-vecs:    dense   smooth      PW
     Min         267     267     69                33297    33297    4437
     Max         268     268     70                33304    33304    4446
     Sum       17139   17139   4479              2131249  2131249  284417
 


     bravais-lattice index     =            0
     lattice parameter (alat)  =      27.8924  a.u.
     unit-cell volume          =   33945.5266 (a.u.)^3
     number of atoms/cell      =          153
     number of atomic types    =            4
     number of electrons       =       580.00
     number of Kohn-Sham states=          320
     kinetic-energy cutoff     =      60.0000  Ry
     charge density cutoff     =     240.0000  Ry
     convergence threshold     =      1.0E-06
     mixing beta               =       0.7000
     number of iterations used =            8  local-TF  mixing
     Exchange-correlation      = SLA-PW-PBX-PBC ( 1  4  3  4 0 0)

     celldm(1)=  27.892358  celldm(2)=   0.000000  celldm(3)=   0.000000
     celldm(4)=   0.000000  celldm(5)=   0.000000  celldm(6)=   0.000000

     crystal axes: (cart. coord. in units of alat)
               a(1) = (   1.000000   0.000000   0.000000 )  
               a(2) = (   0.000000   1.154472   0.000000 )  
               a(3) = (   0.000000   0.000000   1.355014 )  

     reciprocal axes: (cart. coord. in units 2 pi/alat)
               b(1) = (  1.000000  0.000000  0.000000 )  
               b(2) = (  0.000000  0.866197  0.000000 )  
               b(3) = (  0.000000  0.000000  0.738000 )  


     PseudoPot. # 1 for Zn read from file:
     /home/sacss11/scratch/sacss11/hmah/jobs/g_znpc/pp/Zn.pbe-d-hgh.UPF
     MD5 check sum: 840b59d6b5d6b778dd7efd2cc31f93c9
     Pseudo is Norm-conserving, Zval = 12.0
     Generated in analytical, separable form
     Using radial grid of 1201 points,  6 beta functions with: 
                l(1) =   0
                l(2) =   0
                l(3) =   0
                l(4) =   1
                l(5) =   1
                l(6) =   2

     PseudoPot. # 2 for  N read from file:
     /home/sacss11/scratch/sacss11/hmah/jobs/g_znpc/pp/N.pbe-hgh.UPF
     MD5 check sum: 1504e9c56d21d37eacabc67df972de26
     Pseudo is Norm-conserving, Zval =  5.0
     Generated in analytical, separable form
     Using radial grid of 1085 points,  1 beta functions with: 
                l(1) =   0

     PseudoPot. # 3 for  C read from file:
     /home/sacss11/scratch/sacss11/hmah/jobs/g_znpc/pp/C.pbe-hgh.UPF
     MD5 check sum: ca26ff84b356733038fc2f5c468d1892
     Pseudo is Norm-conserving, Zval =  4.0
     Generated in analytical, separable form
     Using radial grid of 1073 points,  1 beta functions with: 
                l(1) =   0

     PseudoPot. # 4 for  H read from file:
     /home/sacss11/scratch/sacss11/hmah/jobs/g_znpc/pp/H.pbe-hgh.UPF
     MD5 check sum: 50ae4f52d34cf16cdfed4bce9c5a191e
     Pseudo is Norm-conserving, Zval =  1.0
     Generated in analytical, separable form
     Using radial grid of  929 points,  0 beta functions with: 

     atomic species   valence    mass     pseudopotential
        Zn            12.00    65.39000     Zn( 1.00)
        N              5.00    14.00674      N( 1.00)
        C              4.00    12.01070      C( 1.00)
        H              1.00     1.00794      H( 1.00)


     Simplified LDA+U calculation (l_max = 2) with parameters (eV):
     atomic species    L          U    alpha       J0     beta
        Zn             2     7.0000   0.0000   0.0000   0.0000
        N              1     5.5000   0.0000   0.0000   0.0000
        C              1     5.5000   0.0000   0.0000   0.0000



     No symmetry found



   Cartesian axes

     site n.     atom                  positions (alat units)
         1           C   tau(   1) = (   0.0005331  -0.0007680   0.1364003  )
         2           C   tau(   2) = (   0.0005436   0.0954696   0.1360866  )
         3           C   tau(   3) = (   0.1672339  -0.0007321   0.1361813  )
         4           C   tau(   4) = (   0.1672873   0.0954781   0.1356568  )
         5           C   tau(   5) = (   0.0839428   0.1435446   0.1357904  )
         6           C   tau(   6) = (   0.0839298   0.2397561   0.1352565  )
         7           C   tau(   7) = (   0.0005255   0.2878242   0.1350901  )
         8           C   tau(   8) = (   0.0005193   0.3840567   0.1348964  )
         9           C   tau(   9) = (   0.3338789  -0.0007065   0.1357297  )
        10           C   tau(  10) = (   0.3339076   0.0954758   0.1348015  )
        11           C   tau(  11) = (   0.2506178   0.1435506   0.1347453  )
        12           C   tau(  12) = (   0.2506076   0.2397326   0.1341436  )
        13           C   tau(  13) = (   0.1672827   0.2878289   0.1345674  )
        14           C   tau(  14) = (   0.1672493   0.3840391   0.1343189  )
        15           C   tau(  15) = (   0.0838999   0.4321317   0.1347100  )
        16           C   tau(  16) = (   0.0838939   0.5283346   0.1346159  )
        17           C   tau(  17) = (   0.0005101   0.5764320   0.1348991  )
        18           C   tau(  18) = (   0.0005077   0.6726500   0.1350798  )
        19           C   tau(  19) = (   0.5005339  -0.0007450   0.1358908  )
        20           C   tau(  20) = (   0.5005399   0.0954867   0.1350756  )
        21           C   tau(  21) = (   0.4172400   0.1435550   0.1343518  )
        22           C   tau(  22) = (   0.4172540   0.2397408   0.1335666  )
        23           C   tau(  23) = (   0.3338974   0.2878312   0.1334624  )
        24           C   tau(  24) = (   0.3338470   0.3840373   0.1331259  )
        25           C   tau(  25) = (   0.2505451   0.4321320   0.1336034  )
        26           C   tau(  26) = (   0.2505082   0.5283335   0.1335608  )
        27           C   tau(  27) = (   0.1671990   0.5764585   0.1340873  )
        28           C   tau(  28) = (   0.1671839   0.6726350   0.1343091  )
        29           C   tau(  29) = (   0.0838679   0.7207112   0.1349413  )
        30           C   tau(  30) = (   0.0838577   0.8169009   0.1355401  )
        31           C   tau(  31) = (   0.0004917   0.8649999   0.1360772  )
        32           C   tau(  32) = (   0.0005023   0.9612502   0.1364052  )
        33           C   tau(  33) = (   0.6671939  -0.0007528   0.1360137  )
        34           C   tau(  34) = (   0.6672206   0.0954699   0.1353345  )
        35           C   tau(  35) = (   0.5838930   0.1435778   0.1348154  )
        36           C   tau(  36) = (   0.5839045   0.2397493   0.1338422  )
        37           C   tau(  37) = (   0.5005594   0.2878189   0.1332753  )
        38           C   tau(  38) = (   0.5005408   0.3840386   0.1327039  )
        39           C   tau(  39) = (   0.4171912   0.4321336   0.1326660  )
        40           C   tau(  40) = (   0.4171577   0.5283411   0.1327197  )
        41           C   tau(  41) = (   0.3338005   0.5764616   0.1332221  )
        42           C   tau(  42) = (   0.3337951   0.6726402   0.1337623  )
        43           C   tau(  43) = (   0.2504849   0.7207113   0.1342760  )
        44           C   tau(  44) = (   0.2504969   0.8169133   0.1349804  )
        45           C   tau(  45) = (   0.1671898   0.8650031   0.1355600  )
        46           C   tau(  46) = (   0.1671899   0.9612418   0.1361323  )
        47           C   tau(  47) = (   0.0838683   1.0093578   0.1363979  )
        48           C   tau(  48) = (   0.0838947   1.1055897   0.1364320  )
        49           C   tau(  49) = (   0.8338446  -0.0007632   0.1361505  )
        50           C   tau(  50) = (   0.8338412   0.0954670   0.1355961  )
        51           C   tau(  51) = (   0.7505560   0.1435584   0.1349639  )
        52           C   tau(  52) = (   0.7505614   0.2397616   0.1341895  )
        53           C   tau(  53) = (   0.6672259   0.2878401   0.1336197  )
        54           C   tau(  54) = (   0.6672187   0.3840347   0.1331038  )
        55           C   tau(  55) = (   0.5838907   0.4321204   0.1326537  )
        56           C   tau(  56) = (   0.5838613   0.5283251   0.1326729  )
        57           C   tau(  57) = (   0.5004830   0.5764550   0.1327792  )
        58           C   tau(  58) = (   0.5004658   0.6726581   0.1334000  )
        59           C   tau(  59) = (   0.4171471   0.7207195   0.1339786  )
        60           C   tau(  60) = (   0.4171639   0.8168878   0.1349058  )
        61           C   tau(  61) = (   0.3338104   0.8649985   0.1353660  )
        62           C   tau(  62) = (   0.3338410   0.9612319   0.1360108  )
        63           C   tau(  63) = (   0.2505384   1.0093674   0.1362102  )
        64           C   tau(  64) = (   0.2505669   1.1056075   0.1361615  )
        65           C   tau(  65) = (   0.9172010   0.1435645   0.1355780  )
        66           C   tau(  66) = (   0.9171832   0.2397601   0.1349550  )
        67           C   tau(  67) = (   0.8338392   0.2878475   0.1342559  )
        68           C   tau(  68) = (   0.8338257   0.3840364   0.1340112  )
        69           C   tau(  69) = (   0.7505377   0.4321316   0.1334706  )
        70           C   tau(  70) = (   0.7505056   0.5283262   0.1335607  )
        71           C   tau(  71) = (   0.6671764   0.5764535   0.1331298  )
        72           C   tau(  72) = (   0.6671309   0.6726396   0.1335115  )
        73           C   tau(  73) = (   0.5838014   0.7207231   0.1336663  )
        74           C   tau(  74) = (   0.5838174   0.8169073   0.1344289  )
        75           C   tau(  75) = (   0.5004937   0.8649792   0.1351466  )
        76           C   tau(  76) = (   0.5005026   0.9612222   0.1359208  )
        77           C   tau(  77) = (   0.4171976   1.0093553   0.1361583  )
        78           C   tau(  78) = (   0.4172107   1.1055889   0.1360526  )
        79           C   tau(  79) = (   0.9171586   0.4321237   0.1345776  )
        80           C   tau(  80) = (   0.9171540   0.5283268   0.1346877  )
        81           C   tau(  81) = (   0.8337791   0.5764474   0.1343000  )
        82           C   tau(  82) = (   0.8337486   0.6726402   0.1345759  )
        83           C   tau(  83) = (   0.7504486   0.7207288   0.1341734  )
        84           C   tau(  84) = (   0.7504404   0.8169073   0.1347824  )
        85           C   tau(  85) = (   0.6671262   0.8649886   0.1348533  )
        86           C   tau(  86) = (   0.6671571   0.9611824   0.1357552  )
        87           C   tau(  87) = (   0.5838527   1.0093289   0.1360737  )
        88           C   tau(  88) = (   0.5838650   1.1055627   0.1361586  )
        89           C   tau(  89) = (   0.9171280   0.7207065   0.1352593  )
        90           C   tau(  90) = (   0.9171175   0.8169176   0.1357966  )
        91           C   tau(  91) = (   0.8337471   0.8649898   0.1356765  )
        92           C   tau(  92) = (   0.8338009   0.9612105   0.1361933  )
        93           C   tau(  93) = (   0.7504926   1.0093106   0.1361733  )
        94           C   tau(  94) = (   0.7505224   1.1055517   0.1362217  )
        95           C   tau(  95) = (   0.9171667   1.0093323   0.1364385  )
        96           C   tau(  96) = (   0.9171941   1.1055645   0.1364000  )
        97           C   tau(  97) = (   0.3922257   0.6535970   0.3703805  )
        98           C   tau(  98) = (   0.3053413   0.5322501   0.3706590  )
        99           C   tau(  99) = (   0.3005287   0.6850755   0.3706588  )
       100           C   tau( 100) = (   0.2461303   0.6089040   0.3707838  )
       101           C   tau( 101) = (   0.2634487   0.7693568   0.3707568  )
       102           C   tau( 102) = (   0.1544258   0.6164793   0.3710235  )
       103           C   tau( 103) = (   0.5474073   0.6785627   0.3708973  )
       104           C   tau( 104) = (   0.3299881   0.3766256   0.3713703  )
       105           C   tau( 105) = (   0.7002057   0.6827193   0.3723668  )
       106           C   tau( 106) = (   0.6243845   0.7375654   0.3720037  )
       107           C   tau( 107) = (   0.6681071   0.5911730   0.3712990  )
       108           C   tau( 108) = (   0.7846591   0.7193566   0.3734631  )
       109           C   tau( 109) = (   0.6325156   0.8292175   0.3726093  )
       110           C   tau( 110) = (   0.3739892   0.2303780   0.3718846  )
       111           C   tau( 111) = (   0.2980500   0.2850331   0.3722893  )
       112           C   tau( 112) = (   0.4508275   0.2893233   0.3709147  )
       113           C   tau( 113) = (   0.3661957   0.1387059   0.3723962  )
       114           C   tau( 114) = (   0.2137043   0.2481495   0.3733761  )
       115           C   tau( 115) = (   0.6927144   0.4358726   0.3705821  )
       116           C   tau( 116) = (   0.6975572   0.2832570   0.3706871  )
       117           C   tau( 117) = (   0.7520148   0.3593420   0.3708172  )
       118           C   tau( 118) = (   0.6058696   0.3147741   0.3703014  )
       119           C   tau( 119) = (   0.7345942   0.1990239   0.3708859  )
       120           C   tau( 120) = (   0.8437377   0.3520296   0.3711039  )
       121           C   tau( 121) = (   0.1178093   0.7009380   0.3706798  )
       122           C   tau( 122) = (   0.1716191   0.7764158   0.3705069  )
       123           C   tau( 123) = (   0.2816386   0.1022965   0.3731327  )
       124           C   tau( 124) = (   0.2063654   0.1563446   0.3736868  )
       125           C   tau( 125) = (   0.8802783   0.2675079   0.3708583  )
       126           C   tau( 126) = (   0.8264568   0.1920502   0.3707354  )
       127           C   tau( 127) = (   0.7172083   0.8654454   0.3733865  )
       128           C   tau( 128) = (   0.7923387   0.8111973   0.3738525  )
       129           Zn  tau( 129) = (   0.4978582   0.4840343   0.3690981  )
       130           N   tau( 130) = (   0.3907500   0.5628697   0.3703748  )
       131           N   tau( 131) = (   0.4636147   0.7045771   0.3704782  )
       132           N   tau( 132) = (   0.2796115   0.4483832   0.3710388  )
       133           N   tau( 133) = (   0.5774946   0.5929717   0.3705757  )
       134           N   tau( 134) = (   0.7188657   0.5196065   0.3709902  )
       135           N   tau( 135) = (   0.4205886   0.3747633   0.3707273  )
       136           N   tau( 136) = (   0.5346384   0.2635512   0.3704356  )
       137           N   tau( 137) = (   0.6071592   0.4055398   0.3702218  )
       138           H   tau( 138) = (   0.1544830   0.2915866   0.3741109  )
       139           H   tau( 139) = (   0.4263714   0.0965917   0.3723921  )
       140           H   tau( 140) = (   0.6914855   0.1395635   0.3710825  )
       141           H   tau( 141) = (   0.8855922   0.4124219   0.3713639  )
       142           H   tau( 142) = (   0.8437165   0.6757371   0.3740265  )
       143           H   tau( 143) = (   0.5724431   0.8715189   0.3725519  )
       144           H   tau( 144) = (   0.3066714   0.8287634   0.3709758  )
       145           H   tau( 145) = (   0.1124256   0.5562530   0.3713899  )
       146           H   tau( 146) = (   0.1398800   0.1251394   0.3744396  )
       147           H   tau( 147) = (   0.2737052   0.0292925   0.3732319  )
       148           H   tau( 148) = (   0.8576395   0.1255595   0.3703069  )
       149           H   tau( 149) = (   0.9532984   0.2597728   0.3706243  )
       150           H   tau( 150) = (   0.8588889   0.8422603   0.3745179  )
       151           H   tau( 151) = (   0.7253733   0.9384606   0.3734876  )
       152           H   tau( 152) = (   0.1403828   0.8428916   0.3699888  )
       153           H   tau( 153) = (   0.0447516   0.7086824   0.3704558  )

     number of k points=     5
                       cart. coord. in units 2pi/alat
        k(    1) = (   0.1666667   0.1443662  -0.3690000), wk =   0.4444444
        k(    2) = (   0.1666667  -0.4330986  -0.3690000), wk =   0.4444444
        k(    3) = (  -0.5000000   0.1443662  -0.3690000), wk =   0.4444444
        k(    4) = (  -0.5000000  -0.4330986  -0.3690000), wk =   0.2222222
        k(    5) = (  -0.1666667   0.1443662   0.3690000), wk =   0.4444444

     Dense  grid:  2131249 G-vectors     FFT dimensions: ( 144, 160, 192)

     Occupations read from input 

        2.0000   2.0000   2.0000   2.0000   2.0000   2.0000   2.0000   2.0000
        2.0000   2.0000   2.0000   2.0000   2.0000   2.0000   2.0000   2.0000
        2.0000   2.0000   2.0000   2.0000   2.0000   2.0000   2.0000   2.0000
        2.0000   2.0000   2.0000   2.0000   2.0000   2.0000   2.0000   2.0000
        2.0000   2.0000   2.0000   2.0000   2.0000   2.0000   2.0000   2.0000
        2.0000   2.0000   2.0000   2.0000   2.0000   2.0000   2.0000   2.0000
        2.0000   2.0000   2.0000   2.0000   2.0000   2.0000   2.0000   2.0000
        2.0000   2.0000   2.0000   2.0000   2.0000   2.0000   2.0000   2.0000
        2.0000   2.0000   2.0000   2.0000   2.0000   2.0000   2.0000   2.0000
        2.0000   2.0000   2.0000   2.0000   2.0000   2.0000   2.0000   2.0000
        2.0000   2.0000   2.0000   2.0000   2.0000   2.0000   2.0000   2.0000
        2.0000   2.0000   2.0000   2.0000   2.0000   2.0000   2.0000   2.0000
        2.0000   2.0000   2.0000   2.0000   2.0000   2.0000   2.0000   2.0000
        2.0000   2.0000   2.0000   2.0000   2.0000   2.0000   2.0000   2.0000
        2.0000   2.0000   2.0000   2.0000   2.0000   2.0000   2.0000   2.0000
        2.0000   2.0000   2.0000   2.0000   2.0000   2.0000   2.0000   2.0000
        2.0000   2.0000   2.0000   2.0000   2.0000   2.0000   2.0000   2.0000
        2.0000   2.0000   2.0000   2.0000   2.0000   2.0000   2.0000   2.0000
        2.0000   2.0000   2.0000   2.0000   2.0000   2.0000   2.0000   2.0000
        2.0000   2.0000   2.0000   2.0000   2.0000   2.0000   2.0000   2.0000
        2.0000   2.0000   2.0000   2.0000   2.0000   2.0000   2.0000   2.0000
        2.0000   2.0000   2.0000   2.0000   2.0000   2.0000   2.0000   2.0000
        2.0000   2.0000   2.0000   2.0000   2.0000   2.0000   2.0000   2.0000
        2.0000   2.0000   2.0000   2.0000   2.0000   2.0000   2.0000   2.0000
        2.0000   2.0000   2.0000   2.0000   2.0000   2.0000   2.0000   2.0000
        2.0000   2.0000   2.0000   2.0000   2.0000   2.0000   2.0000   2.0000
        2.0000   2.0000   2.0000   2.0000   2.0000   2.0000   2.0000   2.0000
        2.0000   2.0000   2.0000   2.0000   2.0000   2.0000   2.0000   2.0000
        2.0000   2.0000   2.0000   2.0000   2.0000   2.0000   2.0000   2.0000
        2.0000   2.0000   2.0000   2.0000   2.0000   2.0000   2.0000   2.0000
        2.0000   2.0000   2.0000   2.0000   2.0000   2.0000   2.0000   2.0000
        2.0000   2.0000   2.0000   2.0000   2.0000   2.0000   2.0000   2.0000
        2.0000   2.0000   2.0000   2.0000   2.0000   2.0000   2.0000   2.0000
        2.0000   2.0000   2.0000   2.0000   2.0000   2.0000   2.0000   2.0000
        2.0000   2.0000   2.0000   2.0000   2.0000   2.0000   2.0000   2.0000
        2.0000   2.0000   2.0000   2.0000   2.0000   2.0000   2.0000   1.0000
        2.0000   2.0000   0.0000   0.0000   1.0000   0.0000   0.0000   0.0000
        0.0000   0.0000   0.0000   0.0000   0.0000   0.0000   0.0000   0.0000
        0.0000   0.0000   0.0000   0.0000   0.0000   0.0000   0.0000   0.0000
        0.0000   0.0000   0.0000   0.0000   0.0000   0.0000   0.0000   0.0000

     Largest allocated arrays     est. size (Mb)     dimensions
        Kohn-Sham Wavefunctions        20.33 Mb     (    4164,  320)
        Atomic Hubbard wavefuncts      26.24 Mb     (    4164,  413)
        NL pseudopotentials             9.53 Mb     (    4164,  150)
        Each V/rho on FFT grid          1.05 Mb     (   69120)
        Each G-vector array             0.25 Mb     (   33304)
        G-vector shells                 0.13 Mb     (   16516)
     Largest temporary arrays     est. size (Mb)     dimensions
        Auxiliary wavefunctions        81.33 Mb     (    4164, 1280)
        Each subspace H/S matrix        1.00 Mb     (     256,  256)
        Each <psi_i|beta_j> matrix      0.73 Mb     (     150,  320)
        Arrays for rho mixing           8.44 Mb     (   69120,    8)

     Initial potential from superposition of free atoms
     Check: negative starting charge=   -0.410216

     starting charge  578.99444, renormalised to  580.00000

     negative rho (up, down):  4.109E-01 0.000E+00
     Number of +U iterations with fixed ns =  0
     Starting occupations:
 --- enter write_ns ---
 LDA+U parameters:
U( 1)     =  7.00000000
alpha( 1) =  0.00000000
U( 2)     =  5.50000000
alpha( 2) =  0.00000000
U( 3)     =  5.50000000
alpha( 3) =  0.00000000
atom    1   Tr[ns(na)] =   2.00000
    eigenvalues: 
  0.333  0.333  0.333
    eigenvectors:
  1.000  0.000  0.000
  0.000  1.000  0.000
  0.000  0.000  1.000
    occupations:
  0.333  0.000  0.000
  0.000  0.333  0.000
  0.000  0.000  0.333
atom    2   Tr[ns(na)] =   2.00000
    eigenvalues: 
  0.333  0.333  0.333
    eigenvectors:
  1.000  0.000  0.000
  0.000  1.000  0.000
  0.000  0.000  1.000
    occupations:
  0.333  0.000  0.000
  0.000  0.333  0.000
  0.000  0.000  0.333
atom    3   Tr[ns(na)] =   2.00000
    eigenvalues: 
  0.333  0.333  0.333
    eigenvectors:
  1.000  0.000  0.000
  0.000  1.000  0.000
  0.000  0.000  1.000
    occupations:
  0.333  0.000  0.000
  0.000  0.333  0.000
  0.000  0.000  0.333
atom    4   Tr[ns(na)] =   2.00000
    eigenvalues: 
  0.333  0.333  0.333
    eigenvectors:
  1.000  0.000  0.000
  0.000  1.000  0.000
  0.000  0.000  1.000
    occupations:
  0.333  0.000  0.000
  0.000  0.333  0.000
  0.000  0.000  0.333
atom    5   Tr[ns(na)] =   2.00000
    eigenvalues: 
  0.333  0.333  0.333
    eigenvectors:
  1.000  0.000  0.000
  0.000  1.000  0.000
  0.000  0.000  1.000
    occupations:
  0.333  0.000  0.000
  0.000  0.333  0.000
  0.000  0.000  0.333
atom    6   Tr[ns(na)] =   2.00000
    eigenvalues: 
  0.333  0.333  0.333
    eigenvectors:
  1.000  0.000  0.000
  0.000  1.000  0.000
  0.000  0.000  1.000
    occupations:
  0.333  0.000  0.000
  0.000  0.333  0.000
  0.000  0.000  0.333
atom    7   Tr[ns(na)] =   2.00000
    eigenvalues: 
  0.333  0.333  0.333
    eigenvectors:
  1.000  0.000  0.000
  0.000  1.000  0.000
  0.000  0.000  1.000
    occupations:
  0.333  0.000  0.000
  0.000  0.333  0.000
  0.000  0.000  0.333
atom    8   Tr[ns(na)] =   2.00000
    eigenvalues: 
  0.333  0.333  0.333
    eigenvectors:
  1.000  0.000  0.000
  0.000  1.000  0.000
  0.000  0.000  1.000
    occupations:
  0.333  0.000  0.000
  0.000  0.333  0.000
  0.000  0.000  0.333
atom    9   Tr[ns(na)] =   2.00000
    eigenvalues: 
  0.333  0.333  0.333
    eigenvectors:
  1.000  0.000  0.000
  0.000  1.000  0.000
  0.000  0.000  1.000
    occupations:
  0.333  0.000  0.000
  0.000  0.333  0.000
  0.000  0.000  0.333
atom   10   Tr[ns(na)] =   2.00000
    eigenvalues: 
  0.333  0.333  0.333
    eigenvectors:
  1.000  0.000  0.000
  0.000  1.000  0.000
  0.000  0.000  1.000
    occupations:
  0.333  0.000  0.000
  0.000  0.333  0.000
  0.000  0.000  0.333
atom   11   Tr[ns(na)] =   2.00000
    eigenvalues: 
  0.333  0.333  0.333
    eigenvectors:
  1.000  0.000  0.000
  0.000  1.000  0.000
  0.000  0.000  1.000
    occupations:
  0.333  0.000  0.000
  0.000  0.333  0.000
  0.000  0.000  0.333
atom   12   Tr[ns(na)] =   2.00000
    eigenvalues: 
  0.333  0.333  0.333
    eigenvectors:
  1.000  0.000  0.000
  0.000  1.000  0.000
  0.000  0.000  1.000
    occupations:
  0.333  0.000  0.000
  0.000  0.333  0.000
  0.000  0.000  0.333
atom   13   Tr[ns(na)] =   2.00000
    eigenvalues: 
  0.333  0.333  0.333
    eigenvectors:
  1.000  0.000  0.000
  0.000  1.000  0.000
  0.000  0.000  1.000
    occupations:
  0.333  0.000  0.000
  0.000  0.333  0.000
  0.000  0.000  0.333
atom   14   Tr[ns(na)] =   2.00000
    eigenvalues: 
  0.333  0.333  0.333
    eigenvectors:
  1.000  0.000  0.000
  0.000  1.000  0.000
  0.000  0.000  1.000
    occupations:
  0.333  0.000  0.000
  0.000  0.333  0.000
  0.000  0.000  0.333
atom   15   Tr[ns(na)] =   2.00000
    eigenvalues: 
  0.333  0.333  0.333
    eigenvectors:
  1.000  0.000  0.000
  0.000  1.000  0.000
  0.000  0.000  1.000
    occupations:
  0.333  0.000  0.000
  0.000  0.333  0.000
  0.000  0.000  0.333
atom   16   Tr[ns(na)] =   2.00000
    eigenvalues: 
  0.333  0.333  0.333
    eigenvectors:
  1.000  0.000  0.000
  0.000  1.000  0.000
  0.000  0.000  1.000
    occupations:
  0.333  0.000  0.000
  0.000  0.333  0.000
  0.000  0.000  0.333
atom   17   Tr[ns(na)] =   2.00000
    eigenvalues: 
  0.333  0.333  0.333
    eigenvectors:
  1.000  0.000  0.000
  0.000  1.000  0.000
  0.000  0.000  1.000
    occupations:
  0.333  0.000  0.000
  0.000  0.333  0.000
  0.000  0.000  0.333
atom   18   Tr[ns(na)] =   2.00000
    eigenvalues: 
  0.333  0.333  0.333
    eigenvectors:
  1.000  0.000  0.000
  0.000  1.000  0.000
  0.000  0.000  1.000
    occupations:
  0.333  0.000  0.000
  0.000  0.333  0.000
  0.000  0.000  0.333
atom   19   Tr[ns(na)] =   2.00000
    eigenvalues: 
  0.333  0.333  0.333
    eigenvectors:
  1.000  0.000  0.000
  0.000  1.000  0.000
  0.000  0.000  1.000
    occupations:
  0.333  0.000  0.000
  0.000  0.333  0.000
  0.000  0.000  0.333
atom   20   Tr[ns(na)] =   2.00000
    eigenvalues: 
  0.333  0.333  0.333
    eigenvectors:
  1.000  0.000  0.000
  0.000  1.000  0.000
  0.000  0.000  1.000
    occupations:
  0.333  0.000  0.000
  0.000  0.333  0.000
  0.000  0.000  0.333
atom   21   Tr[ns(na)] =   2.00000
    eigenvalues: 
  0.333  0.333  0.333
    eigenvectors:
  1.000  0.000  0.000
  0.000  1.000  0.000
  0.000  0.000  1.000
    occupations:
  0.333  0.000  0.000
  0.000  0.333  0.000
  0.000  0.000  0.333
atom   22   Tr[ns(na)] =   2.00000
    eigenvalues: 
  0.333  0.333  0.333
    eigenvectors:
  1.000  0.000  0.000
  0.000  1.000  0.000
  0.000  0.000  1.000
    occupations:
  0.333  0.000  0.000
  0.000  0.333  0.000
  0.000  0.000  0.333
atom   23   Tr[ns(na)] =   2.00000
    eigenvalues: 
  0.333  0.333  0.333
    eigenvectors:
  1.000  0.000  0.000
  0.000  1.000  0.000
  0.000  0.000  1.000
    occupations:
  0.333  0.000  0.000
  0.000  0.333  0.000
  0.000  0.000  0.333
atom   24   Tr[ns(na)] =   2.00000
    eigenvalues: 
  0.333  0.333  0.333
    eigenvectors:
  1.000  0.000  0.000
  0.000  1.000  0.000
  0.000  0.000  1.000
    occupations:
  0.333  0.000  0.000
  0.000  0.333  0.000
  0.000  0.000  0.333
atom   25   Tr[ns(na)] =   2.00000
    eigenvalues: 
  0.333  0.333  0.333
    eigenvectors:
  1.000  0.000  0.000
  0.000  1.000  0.000
  0.000  0.000  1.000
    occupations:
  0.333  0.000  0.000
  0.000  0.333  0.000
  0.000  0.000  0.333
atom   26   Tr[ns(na)] =   2.00000
    eigenvalues: 
  0.333  0.333  0.333
    eigenvectors:
  1.000  0.000  0.000
  0.000  1.000  0.000
  0.000  0.000  1.000
    occupations:
  0.333  0.000  0.000
  0.000  0.333  0.000
  0.000  0.000  0.333
atom   27   Tr[ns(na)] =   2.00000
    eigenvalues: 
  0.333  0.333  0.333
    eigenvectors:
  1.000  0.000  0.000
  0.000  1.000  0.000
  0.000  0.000  1.000
    occupations:
  0.333  0.000  0.000
  0.000  0.333  0.000
  0.000  0.000  0.333
atom   28   Tr[ns(na)] =   2.00000
    eigenvalues: 
  0.333  0.333  0.333
    eigenvectors:
  1.000  0.000  0.000
  0.000  1.000  0.000
  0.000  0.000  1.000
    occupations:
  0.333  0.000  0.000
  0.000  0.333  0.000
  0.000  0.000  0.333
atom   29   Tr[ns(na)] =   2.00000
    eigenvalues: 
  0.333  0.333  0.333
    eigenvectors:
  1.000  0.000  0.000
  0.000  1.000  0.000
  0.000  0.000  1.000
    occupations:
  0.333  0.000  0.000
  0.000  0.333  0.000
  0.000  0.000  0.333
atom   30   Tr[ns(na)] =   2.00000
    eigenvalues: 
  0.333  0.333  0.333
    eigenvectors:
  1.000  0.000  0.000
  0.000  1.000  0.000
  0.000  0.000  1.000
    occupations:
  0.333  0.000  0.000
  0.000  0.333  0.000
  0.000  0.000  0.333
atom   31   Tr[ns(na)] =   2.00000
    eigenvalues: 
  0.333  0.333  0.333
    eigenvectors:
  1.000  0.000  0.000
  0.000  1.000  0.000
  0.000  0.000  1.000
    occupations:
  0.333  0.000  0.000
  0.000  0.333  0.000
  0.000  0.000  0.333
atom   32   Tr[ns(na)] =   2.00000
    eigenvalues: 
  0.333  0.333  0.333
    eigenvectors:
  1.000  0.000  0.000
  0.000  1.000  0.000
  0.000  0.000  1.000
    occupations:
  0.333  0.000  0.000
  0.000  0.333  0.000
  0.000  0.000  0.333
atom   33   Tr[ns(na)] =   2.00000
    eigenvalues: 
  0.333  0.333  0.333
    eigenvectors:
  1.000  0.000  0.000
  0.000  1.000  0.000
  0.000  0.000  1.000
    occupations:
  0.333  0.000  0.000
  0.000  0.333  0.000
  0.000  0.000  0.333
atom   34   Tr[ns(na)] =   2.00000
    eigenvalues: 
  0.333  0.333  0.333
    eigenvectors:
  1.000  0.000  0.000
  0.000  1.000  0.000
  0.000  0.000  1.000
    occupations:
  0.333  0.000  0.000
  0.000  0.333  0.000
  0.000  0.000  0.333
atom   35   Tr[ns(na)] =   2.00000
    eigenvalues: 
  0.333  0.333  0.333
    eigenvectors:
  1.000  0.000  0.000
  0.000  1.000  0.000
  0.000  0.000  1.000
    occupations:
  0.333  0.000  0.000
  0.000  0.333  0.000
  0.000  0.000  0.333
atom   36   Tr[ns(na)] =   2.00000
    eigenvalues: 
  0.333  0.333  0.333
    eigenvectors:
  1.000  0.000  0.000
  0.000  1.000  0.000
  0.000  0.000  1.000
    occupations:
  0.333  0.000  0.000
  0.000  0.333  0.000
  0.000  0.000  0.333
atom   37   Tr[ns(na)] =   2.00000
    eigenvalues: 
  0.333  0.333  0.333
    eigenvectors:
  1.000  0.000  0.000
  0.000  1.000  0.000
  0.000  0.000  1.000
    occupations:
  0.333  0.000  0.000
  0.000  0.333  0.000
  0.000  0.000  0.333
atom   38   Tr[ns(na)] =   2.00000
    eigenvalues: 
  0.333  0.333  0.333
    eigenvectors:
  1.000  0.000  0.000
  0.000  1.000  0.000
  0.000  0.000  1.000
    occupations:
  0.333  0.000  0.000
  0.000  0.333  0.000
  0.000  0.000  0.333
atom   39   Tr[ns(na)] =   2.00000
    eigenvalues: 
  0.333  0.333  0.333
    eigenvectors:
  1.000  0.000  0.000
  0.000  1.000  0.000
  0.000  0.000  1.000
    occupations:
  0.333  0.000  0.000
  0.000  0.333  0.000
  0.000  0.000  0.333
atom   40   Tr[ns(na)] =   2.00000
    eigenvalues: 
  0.333  0.333  0.333
    eigenvectors:
  1.000  0.000  0.000
  0.000  1.000  0.000
  0.000  0.000  1.000
    occupations:
  0.333  0.000  0.000
  0.000  0.333  0.000
  0.000  0.000  0.333
atom   41   Tr[ns(na)] =   2.00000
    eigenvalues: 
  0.333  0.333  0.333
    eigenvectors:
  1.000  0.000  0.000
  0.000  1.000  0.000
  0.000  0.000  1.000
    occupations:
  0.333  0.000  0.000
  0.000  0.333  0.000
  0.000  0.000  0.333
atom   42   Tr[ns(na)] =   2.00000
    eigenvalues: 
  0.333  0.333  0.333
    eigenvectors:
  1.000  0.000  0.000
  0.000  1.000  0.000
  0.000  0.000  1.000
    occupations:
  0.333  0.000  0.000
  0.000  0.333  0.000
  0.000  0.000  0.333
atom   43   Tr[ns(na)] =   2.00000
    eigenvalues: 
  0.333  0.333  0.333
    eigenvectors:
  1.000  0.000  0.000
  0.000  1.000  0.000
  0.000  0.000  1.000
    occupations:
  0.333  0.000  0.000
  0.000  0.333  0.000
  0.000  0.000  0.333
atom   44   Tr[ns(na)] =   2.00000
    eigenvalues: 
  0.333  0.333  0.333
    eigenvectors:
  1.000  0.000  0.000
  0.000  1.000  0.000
  0.000  0.000  1.000
    occupations:
  0.333  0.000  0.000
  0.000  0.333  0.000
  0.000  0.000  0.333
atom   45   Tr[ns(na)] =   2.00000
    eigenvalues: 
  0.333  0.333  0.333
    eigenvectors:
  1.000  0.000  0.000
  0.000  1.000  0.000
  0.000  0.000  1.000
    occupations:
  0.333  0.000  0.000
  0.000  0.333  0.000
  0.000  0.000  0.333
atom   46   Tr[ns(na)] =   2.00000
    eigenvalues: 
  0.333  0.333  0.333
    eigenvectors:
  1.000  0.000  0.000
  0.000  1.000  0.000
  0.000  0.000  1.000
    occupations:
  0.333  0.000  0.000
  0.000  0.333  0.000
  0.000  0.000  0.333
atom   47   Tr[ns(na)] =   2.00000
    eigenvalues: 
  0.333  0.333  0.333
    eigenvectors:
  1.000  0.000  0.000
  0.000  1.000  0.000
  0.000  0.000  1.000
    occupations:
  0.333  0.000  0.000
  0.000  0.333  0.000
  0.000  0.000  0.333
atom   48   Tr[ns(na)] =   2.00000
    eigenvalues: 
  0.333  0.333  0.333
    eigenvectors:
  1.000  0.000  0.000
  0.000  1.000  0.000
  0.000  0.000  1.000
    occupations:
  0.333  0.000  0.000
  0.000  0.333  0.000
  0.000  0.000  0.333
atom   49   Tr[ns(na)] =   2.00000
    eigenvalues: 
  0.333  0.333  0.333
    eigenvectors:
  1.000  0.000  0.000
  0.000  1.000  0.000
  0.000  0.000  1.000
    occupations:
  0.333  0.000  0.000
  0.000  0.333  0.000
  0.000  0.000  0.333
atom   50   Tr[ns(na)] =   2.00000
    eigenvalues: 
  0.333  0.333  0.333
    eigenvectors:
  1.000  0.000  0.000
  0.000  1.000  0.000
  0.000  0.000  1.000
    occupations:
  0.333  0.000  0.000
  0.000  0.333  0.000
  0.000  0.000  0.333
atom   51   Tr[ns(na)] =   2.00000
    eigenvalues: 
  0.333  0.333  0.333
    eigenvectors:
  1.000  0.000  0.000
  0.000  1.000  0.000
  0.000  0.000  1.000
    occupations:
  0.333  0.000  0.000
  0.000  0.333  0.000
  0.000  0.000  0.333
atom   52   Tr[ns(na)] =   2.00000
    eigenvalues: 
  0.333  0.333  0.333
    eigenvectors:
  1.000  0.000  0.000
  0.000  1.000  0.000
  0.000  0.000  1.000
    occupations:
  0.333  0.000  0.000
  0.000  0.333  0.000
  0.000  0.000  0.333
atom   53   Tr[ns(na)] =   2.00000
    eigenvalues: 
  0.333  0.333  0.333
    eigenvectors:
  1.000  0.000  0.000
  0.000  1.000  0.000
  0.000  0.000  1.000
    occupations:
  0.333  0.000  0.000
  0.000  0.333  0.000
  0.000  0.000  0.333
atom   54   Tr[ns(na)] =   2.00000
    eigenvalues: 
  0.333  0.333  0.333
    eigenvectors:
  1.000  0.000  0.000
  0.000  1.000  0.000
  0.000  0.000  1.000
    occupations:
  0.333  0.000  0.000
  0.000  0.333  0.000
  0.000  0.000  0.333
atom   55   Tr[ns(na)] =   2.00000
    eigenvalues: 
  0.333  0.333  0.333
    eigenvectors:
  1.000  0.000  0.000
  0.000  1.000  0.000
  0.000  0.000  1.000
    occupations:
  0.333  0.000  0.000
  0.000  0.333  0.000
  0.000  0.000  0.333
atom   56   Tr[ns(na)] =   2.00000
    eigenvalues: 
  0.333  0.333  0.333
    eigenvectors:
  1.000  0.000  0.000
  0.000  1.000  0.000
  0.000  0.000  1.000
    occupations:
  0.333  0.000  0.000
  0.000  0.333  0.000
  0.000  0.000  0.333
atom   57   Tr[ns(na)] =   2.00000
    eigenvalues: 
  0.333  0.333  0.333
    eigenvectors:
  1.000  0.000  0.000
  0.000  1.000  0.000
  0.000  0.000  1.000
    occupations:
  0.333  0.000  0.000
  0.000  0.333  0.000
  0.000  0.000  0.333
atom   58   Tr[ns(na)] =   2.00000
    eigenvalues: 
  0.333  0.333  0.333
    eigenvectors:
  1.000  0.000  0.000
  0.000  1.000  0.000
  0.000  0.000  1.000
    occupations:
  0.333  0.000  0.000
  0.000  0.333  0.000
  0.000  0.000  0.333
atom   59   Tr[ns(na)] =   2.00000
    eigenvalues: 
  0.333  0.333  0.333
    eigenvectors:
  1.000  0.000  0.000
  0.000  1.000  0.000
  0.000  0.000  1.000
    occupations:
  0.333  0.000  0.000
  0.000  0.333  0.000
  0.000  0.000  0.333
atom   60   Tr[ns(na)] =   2.00000
    eigenvalues: 
  0.333  0.333  0.333
    eigenvectors:
  1.000  0.000  0.000
  0.000  1.000  0.000
  0.000  0.000  1.000
    occupations:
  0.333  0.000  0.000
  0.000  0.333  0.000
  0.000  0.000  0.333
atom   61   Tr[ns(na)] =   2.00000
    eigenvalues: 
  0.333  0.333  0.333
    eigenvectors:
  1.000  0.000  0.000
  0.000  1.000  0.000
  0.000  0.000  1.000
    occupations:
  0.333  0.000  0.000
  0.000  0.333  0.000
  0.000  0.000  0.333
atom   62   Tr[ns(na)] =   2.00000
    eigenvalues: 
  0.333  0.333  0.333
    eigenvectors:
  1.000  0.000  0.000
  0.000  1.000  0.000
  0.000  0.000  1.000
    occupations:
  0.333  0.000  0.000
  0.000  0.333  0.000
  0.000  0.000  0.333
atom   63   Tr[ns(na)] =   2.00000
    eigenvalues: 
  0.333  0.333  0.333
    eigenvectors:
  1.000  0.000  0.000
  0.000  1.000  0.000
  0.000  0.000  1.000
    occupations:
  0.333  0.000  0.000
  0.000  0.333  0.000
  0.000  0.000  0.333
atom   64   Tr[ns(na)] =   2.00000
    eigenvalues: 
  0.333  0.333  0.333
    eigenvectors:
  1.000  0.000  0.000
  0.000  1.000  0.000
  0.000  0.000  1.000
    occupations:
  0.333  0.000  0.000
  0.000  0.333  0.000
  0.000  0.000  0.333
atom   65   Tr[ns(na)] =   2.00000
    eigenvalues: 
  0.333  0.333  0.333
    eigenvectors:
  1.000  0.000  0.000
  0.000  1.000  0.000
  0.000  0.000  1.000
    occupations:
  0.333  0.000  0.000
  0.000  0.333  0.000
  0.000  0.000  0.333
atom   66   Tr[ns(na)] =   2.00000
    eigenvalues: 
  0.333  0.333  0.333
    eigenvectors:
  1.000  0.000  0.000
  0.000  1.000  0.000
  0.000  0.000  1.000
    occupations:
  0.333  0.000  0.000
  0.000  0.333  0.000
  0.000  0.000  0.333
atom   67   Tr[ns(na)] =   2.00000
    eigenvalues: 
  0.333  0.333  0.333
    eigenvectors:
  1.000  0.000  0.000
  0.000  1.000  0.000
  0.000  0.000  1.000
    occupations:
  0.333  0.000  0.000
  0.000  0.333  0.000
  0.000  0.000  0.333
atom   68   Tr[ns(na)] =   2.00000
    eigenvalues: 
  0.333  0.333  0.333
    eigenvectors:
  1.000  0.000  0.000
  0.000  1.000  0.000
  0.000  0.000  1.000
    occupations:
  0.333  0.000  0.000
  0.000  0.333  0.000
  0.000  0.000  0.333
atom   69   Tr[ns(na)] =   2.00000
    eigenvalues: 
  0.333  0.333  0.333
    eigenvectors:
  1.000  0.000  0.000
  0.000  1.000  0.000
  0.000  0.000  1.000
    occupations:
  0.333  0.000  0.000
  0.000  0.333  0.000
  0.000  0.000  0.333
atom   70   Tr[ns(na)] =   2.00000
    eigenvalues: 
  0.333  0.333  0.333
    eigenvectors:
  1.000  0.000  0.000
  0.000  1.000  0.000
  0.000  0.000  1.000
    occupations:
  0.333  0.000  0.000
  0.000  0.333  0.000
  0.000  0.000  0.333
atom   71   Tr[ns(na)] =   2.00000
    eigenvalues: 
  0.333  0.333  0.333
    eigenvectors:
  1.000  0.000  0.000
  0.000  1.000  0.000
  0.000  0.000  1.000
    occupations:
  0.333  0.000  0.000
  0.000  0.333  0.000
  0.000  0.000  0.333
atom   72   Tr[ns(na)] =   2.00000
    eigenvalues: 
  0.333  0.333  0.333
    eigenvectors:
  1.000  0.000  0.000
  0.000  1.000  0.000
  0.000  0.000  1.000
    occupations:
  0.333  0.000  0.000
  0.000  0.333  0.000
  0.000  0.000  0.333
atom   73   Tr[ns(na)] =   2.00000
    eigenvalues: 
  0.333  0.333  0.333
    eigenvectors:
  1.000  0.000  0.000
  0.000  1.000  0.000
  0.000  0.000  1.000
    occupations:
  0.333  0.000  0.000
  0.000  0.333  0.000
  0.000  0.000  0.333
atom   74   Tr[ns(na)] =   2.00000
    eigenvalues: 
  0.333  0.333  0.333
    eigenvectors:
  1.000  0.000  0.000
  0.000  1.000  0.000
  0.000  0.000  1.000
    occupations:
  0.333  0.000  0.000
  0.000  0.333  0.000
  0.000  0.000  0.333
atom   75   Tr[ns(na)] =   2.00000
    eigenvalues: 
  0.333  0.333  0.333
    eigenvectors:
  1.000  0.000  0.000
  0.000  1.000  0.000
  0.000  0.000  1.000
    occupations:
  0.333  0.000  0.000
  0.000  0.333  0.000
  0.000  0.000  0.333
atom   76   Tr[ns(na)] =   2.00000
    eigenvalues: 
  0.333  0.333  0.333
    eigenvectors:
  1.000  0.000  0.000
  0.000  1.000  0.000
  0.000  0.000  1.000
    occupations:
  0.333  0.000  0.000
  0.000  0.333  0.000
  0.000  0.000  0.333
atom   77   Tr[ns(na)] =   2.00000
    eigenvalues: 
  0.333  0.333  0.333
    eigenvectors:
  1.000  0.000  0.000
  0.000  1.000  0.000
  0.000  0.000  1.000
    occupations:
  0.333  0.000  0.000
  0.000  0.333  0.000
  0.000  0.000  0.333
atom   78   Tr[ns(na)] =   2.00000
    eigenvalues: 
  0.333  0.333  0.333
    eigenvectors:
  1.000  0.000  0.000
  0.000  1.000  0.000
  0.000  0.000  1.000
    occupations:
  0.333  0.000  0.000
  0.000  0.333  0.000
  0.000  0.000  0.333
atom   79   Tr[ns(na)] =   2.00000
    eigenvalues: 
  0.333  0.333  0.333
    eigenvectors:
  1.000  0.000  0.000
  0.000  1.000  0.000
  0.000  0.000  1.000
    occupations:
  0.333  0.000  0.000
  0.000  0.333  0.000
  0.000  0.000  0.333
atom   80   Tr[ns(na)] =   2.00000
    eigenvalues: 
  0.333  0.333  0.333
    eigenvectors:
  1.000  0.000  0.000
  0.000  1.000  0.000
  0.000  0.000  1.000
    occupations:
  0.333  0.000  0.000
  0.000  0.333  0.000
  0.000  0.000  0.333
atom   81   Tr[ns(na)] =   2.00000
    eigenvalues: 
  0.333  0.333  0.333
    eigenvectors:
  1.000  0.000  0.000
  0.000  1.000  0.000
  0.000  0.000  1.000
    occupations:
  0.333  0.000  0.000
  0.000  0.333  0.000
  0.000  0.000  0.333
atom   82   Tr[ns(na)] =   2.00000
    eigenvalues: 
  0.333  0.333  0.333
    eigenvectors:
  1.000  0.000  0.000
  0.000  1.000  0.000
  0.000  0.000  1.000
    occupations:
  0.333  0.000  0.000
  0.000  0.333  0.000
  0.000  0.000  0.333
atom   83   Tr[ns(na)] =   2.00000
    eigenvalues: 
  0.333  0.333  0.333
    eigenvectors:
  1.000  0.000  0.000
  0.000  1.000  0.000
  0.000  0.000  1.000
    occupations:
  0.333  0.000  0.000
  0.000  0.333  0.000
  0.000  0.000  0.333
atom   84   Tr[ns(na)] =   2.00000
    eigenvalues: 
  0.333  0.333  0.333
    eigenvectors:
  1.000  0.000  0.000
  0.000  1.000  0.000
  0.000  0.000  1.000
    occupations:
  0.333  0.000  0.000
  0.000  0.333  0.000
  0.000  0.000  0.333
atom   85   Tr[ns(na)] =   2.00000
    eigenvalues: 
  0.333  0.333  0.333
    eigenvectors:
  1.000  0.000  0.000
  0.000  1.000  0.000
  0.000  0.000  1.000
    occupations:
  0.333  0.000  0.000
  0.000  0.333  0.000
  0.000  0.000  0.333
atom   86   Tr[ns(na)] =   2.00000
    eigenvalues: 
  0.333  0.333  0.333
    eigenvectors:
  1.000  0.000  0.000
  0.000  1.000  0.000
  0.000  0.000  1.000
    occupations:
  0.333  0.000  0.000
  0.000  0.333  0.000
  0.000  0.000  0.333
atom   87   Tr[ns(na)] =   2.00000
    eigenvalues: 
  0.333  0.333  0.333
    eigenvectors:
  1.000  0.000  0.000
  0.000  1.000  0.000
  0.000  0.000  1.000
    occupations:
  0.333  0.000  0.000
  0.000  0.333  0.000
  0.000  0.000  0.333
atom   88   Tr[ns(na)] =   2.00000
    eigenvalues: 
  0.333  0.333  0.333
    eigenvectors:
  1.000  0.000  0.000
  0.000  1.000  0.000
  0.000  0.000  1.000
    occupations:
  0.333  0.000  0.000
  0.000  0.333  0.000
  0.000  0.000  0.333
atom   89   Tr[ns(na)] =   2.00000
    eigenvalues: 
  0.333  0.333  0.333
    eigenvectors:
  1.000  0.000  0.000
  0.000  1.000  0.000
  0.000  0.000  1.000
    occupations:
  0.333  0.000  0.000
  0.000  0.333  0.000
  0.000  0.000  0.333
atom   90   Tr[ns(na)] =   2.00000
    eigenvalues: 
  0.333  0.333  0.333
    eigenvectors:
  1.000  0.000  0.000
  0.000  1.000  0.000
  0.000  0.000  1.000
    occupations:
  0.333  0.000  0.000
  0.000  0.333  0.000
  0.000  0.000  0.333
atom   91   Tr[ns(na)] =   2.00000
    eigenvalues: 
  0.333  0.333  0.333
    eigenvectors:
  1.000  0.000  0.000
  0.000  1.000  0.000
  0.000  0.000  1.000
    occupations:
  0.333  0.000  0.000
  0.000  0.333  0.000
  0.000  0.000  0.333
atom   92   Tr[ns(na)] =   2.00000
    eigenvalues: 
  0.333  0.333  0.333
    eigenvectors:
  1.000  0.000  0.000
  0.000  1.000  0.000
  0.000  0.000  1.000
    occupations:
  0.333  0.000  0.000
  0.000  0.333  0.000
  0.000  0.000  0.333
atom   93   Tr[ns(na)] =   2.00000
    eigenvalues: 
  0.333  0.333  0.333
    eigenvectors:
  1.000  0.000  0.000
  0.000  1.000  0.000
  0.000  0.000  1.000
    occupations:
  0.333  0.000  0.000
  0.000  0.333  0.000
  0.000  0.000  0.333
atom   94   Tr[ns(na)] =   2.00000
    eigenvalues: 
  0.333  0.333  0.333
    eigenvectors:
  1.000  0.000  0.000
  0.000  1.000  0.000
  0.000  0.000  1.000
    occupations:
  0.333  0.000  0.000
  0.000  0.333  0.000
  0.000  0.000  0.333
atom   95   Tr[ns(na)] =   2.00000
    eigenvalues: 
  0.333  0.333  0.333
    eigenvectors:
  1.000  0.000  0.000
  0.000  1.000  0.000
  0.000  0.000  1.000
    occupations:
  0.333  0.000  0.000
  0.000  0.333  0.000
  0.000  0.000  0.333
atom   96   Tr[ns(na)] =   2.00000
    eigenvalues: 
  0.333  0.333  0.333
    eigenvectors:
  1.000  0.000  0.000
  0.000  1.000  0.000
  0.000  0.000  1.000
    occupations:
  0.333  0.000  0.000
  0.000  0.333  0.000
  0.000  0.000  0.333
atom   97   Tr[ns(na)] =   2.00000
    eigenvalues: 
  0.333  0.333  0.333
    eigenvectors:
  1.000  0.000  0.000
  0.000  1.000  0.000
  0.000  0.000  1.000
    occupations:
  0.333  0.000  0.000
  0.000  0.333  0.000
  0.000  0.000  0.333
atom   98   Tr[ns(na)] =   2.00000
    eigenvalues: 
  0.333  0.333  0.333
    eigenvectors:
  1.000  0.000  0.000
  0.000  1.000  0.000
  0.000  0.000  1.000
    occupations:
  0.333  0.000  0.000
  0.000  0.333  0.000
  0.000  0.000  0.333
atom   99   Tr[ns(na)] =   2.00000
    eigenvalues: 
  0.333  0.333  0.333
    eigenvectors:
  1.000  0.000  0.000
  0.000  1.000  0.000
  0.000  0.000  1.000
    occupations:
  0.333  0.000  0.000
  0.000  0.333  0.000
  0.000  0.000  0.333
atom  100   Tr[ns(na)] =   2.00000
    eigenvalues: 
  0.333  0.333  0.333
    eigenvectors:
  1.000  0.000  0.000
  0.000  1.000  0.000
  0.000  0.000  1.000
    occupations:
  0.333  0.000  0.000
  0.000  0.333  0.000
  0.000  0.000  0.333
atom  101   Tr[ns(na)] =   2.00000
    eigenvalues: 
  0.333  0.333  0.333
    eigenvectors:
  1.000  0.000  0.000
  0.000  1.000  0.000
  0.000  0.000  1.000
    occupations:
  0.333  0.000  0.000
  0.000  0.333  0.000
  0.000  0.000  0.333
atom  102   Tr[ns(na)] =   2.00000
    eigenvalues: 
  0.333  0.333  0.333
    eigenvectors:
  1.000  0.000  0.000
  0.000  1.000  0.000
  0.000  0.000  1.000
    occupations:
  0.333  0.000  0.000
  0.000  0.333  0.000
  0.000  0.000  0.333
atom  103   Tr[ns(na)] =   2.00000
    eigenvalues: 
  0.333  0.333  0.333
    eigenvectors:
  1.000  0.000  0.000
  0.000  1.000  0.000
  0.000  0.000  1.000
    occupations:
  0.333  0.000  0.000
  0.000  0.333  0.000
  0.000  0.000  0.333
atom  104   Tr[ns(na)] =   2.00000
    eigenvalues: 
  0.333  0.333  0.333
    eigenvectors:
  1.000  0.000  0.000
  0.000  1.000  0.000
  0.000  0.000  1.000
    occupations:
  0.333  0.000  0.000
  0.000  0.333  0.000
  0.000  0.000  0.333
atom  105   Tr[ns(na)] =   2.00000
    eigenvalues: 
  0.333  0.333  0.333
    eigenvectors:
  1.000  0.000  0.000
  0.000  1.000  0.000
  0.000  0.000  1.000
    occupations:
  0.333  0.000  0.000
  0.000  0.333  0.000
  0.000  0.000  0.333
atom  106   Tr[ns(na)] =   2.00000
    eigenvalues: 
  0.333  0.333  0.333
    eigenvectors:
  1.000  0.000  0.000
  0.000  1.000  0.000
  0.000  0.000  1.000
    occupations:
  0.333  0.000  0.000
  0.000  0.333  0.000
  0.000  0.000  0.333
atom  107   Tr[ns(na)] =   2.00000
    eigenvalues: 
  0.333  0.333  0.333
    eigenvectors:
  1.000  0.000  0.000
  0.000  1.000  0.000
  0.000  0.000  1.000
    occupations:
  0.333  0.000  0.000
  0.000  0.333  0.000
  0.000  0.000  0.333
atom  108   Tr[ns(na)] =   2.00000
    eigenvalues: 
  0.333  0.333  0.333
    eigenvectors:
  1.000  0.000  0.000
  0.000  1.000  0.000
  0.000  0.000  1.000
    occupations:
  0.333  0.000  0.000
  0.000  0.333  0.000
  0.000  0.000  0.333
atom  109   Tr[ns(na)] =   2.00000
    eigenvalues: 
  0.333  0.333  0.333
    eigenvectors:
  1.000  0.000  0.000
  0.000  1.000  0.000
  0.000  0.000  1.000
    occupations:
  0.333  0.000  0.000
  0.000  0.333  0.000
  0.000  0.000  0.333
atom  110   Tr[ns(na)] =   2.00000
    eigenvalues: 
  0.333  0.333  0.333
    eigenvectors:
  1.000  0.000  0.000
  0.000  1.000  0.000
  0.000  0.000  1.000
    occupations:
  0.333  0.000  0.000
  0.000  0.333  0.000
  0.000  0.000  0.333
atom  111   Tr[ns(na)] =   2.00000
    eigenvalues: 
  0.333  0.333  0.333
    eigenvectors:
  1.000  0.000  0.000
  0.000  1.000  0.000
  0.000  0.000  1.000
    occupations:
  0.333  0.000  0.000
  0.000  0.333  0.000
  0.000  0.000  0.333
atom  112   Tr[ns(na)] =   2.00000
    eigenvalues: 
  0.333  0.333  0.333
    eigenvectors:
  1.000  0.000  0.000
  0.000  1.000  0.000
  0.000  0.000  1.000
    occupations:
  0.333  0.000  0.000
  0.000  0.333  0.000
  0.000  0.000  0.333
atom  113   Tr[ns(na)] =   2.00000
    eigenvalues: 
  0.333  0.333  0.333
    eigenvectors:
  1.000  0.000  0.000
  0.000  1.000  0.000
  0.000  0.000  1.000
    occupations:
  0.333  0.000  0.000
  0.000  0.333  0.000
  0.000  0.000  0.333
atom  114   Tr[ns(na)] =   2.00000
    eigenvalues: 
  0.333  0.333  0.333
    eigenvectors:
  1.000  0.000  0.000
  0.000  1.000  0.000
  0.000  0.000  1.000
    occupations:
  0.333  0.000  0.000
  0.000  0.333  0.000
  0.000  0.000  0.333
atom  115   Tr[ns(na)] =   2.00000
    eigenvalues: 
  0.333  0.333  0.333
    eigenvectors:
  1.000  0.000  0.000
  0.000  1.000  0.000
  0.000  0.000  1.000
    occupations:
  0.333  0.000  0.000
  0.000  0.333  0.000
  0.000  0.000  0.333
atom  116   Tr[ns(na)] =   2.00000
    eigenvalues: 
  0.333  0.333  0.333
    eigenvectors:
  1.000  0.000  0.000
  0.000  1.000  0.000
  0.000  0.000  1.000
    occupations:
  0.333  0.000  0.000
  0.000  0.333  0.000
  0.000  0.000  0.333
atom  117   Tr[ns(na)] =   2.00000
    eigenvalues: 
  0.333  0.333  0.333
    eigenvectors:
  1.000  0.000  0.000
  0.000  1.000  0.000
  0.000  0.000  1.000
    occupations:
  0.333  0.000  0.000
  0.000  0.333  0.000
  0.000  0.000  0.333
atom  118   Tr[ns(na)] =   2.00000
    eigenvalues: 
  0.333  0.333  0.333
    eigenvectors:
  1.000  0.000  0.000
  0.000  1.000  0.000
  0.000  0.000  1.000
    occupations:
  0.333  0.000  0.000
  0.000  0.333  0.000
  0.000  0.000  0.333
atom  119   Tr[ns(na)] =   2.00000
    eigenvalues: 
  0.333  0.333  0.333
    eigenvectors:
  1.000  0.000  0.000
  0.000  1.000  0.000
  0.000  0.000  1.000
    occupations:
  0.333  0.000  0.000
  0.000  0.333  0.000
  0.000  0.000  0.333
atom  120   Tr[ns(na)] =   2.00000
    eigenvalues: 
  0.333  0.333  0.333
    eigenvectors:
  1.000  0.000  0.000
  0.000  1.000  0.000
  0.000  0.000  1.000
    occupations:
  0.333  0.000  0.000
  0.000  0.333  0.000
  0.000  0.000  0.333
atom  121   Tr[ns(na)] =   2.00000
    eigenvalues: 
  0.333  0.333  0.333
    eigenvectors:
  1.000  0.000  0.000
  0.000  1.000  0.000
  0.000  0.000  1.000
    occupations:
  0.333  0.000  0.000
  0.000  0.333  0.000
  0.000  0.000  0.333
atom  122   Tr[ns(na)] =   2.00000
    eigenvalues: 
  0.333  0.333  0.333
    eigenvectors:
  1.000  0.000  0.000
  0.000  1.000  0.000
  0.000  0.000  1.000
    occupations:
  0.333  0.000  0.000
  0.000  0.333  0.000
  0.000  0.000  0.333
atom  123   Tr[ns(na)] =   2.00000
    eigenvalues: 
  0.333  0.333  0.333
    eigenvectors:
  1.000  0.000  0.000
  0.000  1.000  0.000
  0.000  0.000  1.000
    occupations:
  0.333  0.000  0.000
  0.000  0.333  0.000
  0.000  0.000  0.333
atom  124   Tr[ns(na)] =   2.00000
    eigenvalues: 
  0.333  0.333  0.333
    eigenvectors:
  1.000  0.000  0.000
  0.000  1.000  0.000
  0.000  0.000  1.000
    occupations:
  0.333  0.000  0.000
  0.000  0.333  0.000
  0.000  0.000  0.333
atom  125   Tr[ns(na)] =   2.00000
    eigenvalues: 
  0.333  0.333  0.333
    eigenvectors:
  1.000  0.000  0.000
  0.000  1.000  0.000
  0.000  0.000  1.000
    occupations:
  0.333  0.000  0.000
  0.000  0.333  0.000
  0.000  0.000  0.333
atom  126   Tr[ns(na)] =   2.00000
    eigenvalues: 
  0.333  0.333  0.333
    eigenvectors:
  1.000  0.000  0.000
  0.000  1.000  0.000
  0.000  0.000  1.000
    occupations:
  0.333  0.000  0.000
  0.000  0.333  0.000
  0.000  0.000  0.333
atom  127   Tr[ns(na)] =   2.00000
    eigenvalues: 
  0.333  0.333  0.333
    eigenvectors:
  1.000  0.000  0.000
  0.000  1.000  0.000
  0.000  0.000  1.000
    occupations:
  0.333  0.000  0.000
  0.000  0.333  0.000
  0.000  0.000  0.333
atom  128   Tr[ns(na)] =   2.00000
    eigenvalues: 
  0.333  0.333  0.333
    eigenvectors:
  1.000  0.000  0.000
  0.000  1.000  0.000
  0.000  0.000  1.000
    occupations:
  0.333  0.000  0.000
  0.000  0.333  0.000
  0.000  0.000  0.333
atom  129   Tr[ns(na)] =  10.00000
    eigenvalues: 
  1.000  1.000  1.000  1.000  1.000
    eigenvectors:
  1.000  0.000  0.000  0.000  0.000
  0.000  1.000  0.000  0.000  0.000
  0.000  0.000  1.000  0.000  0.000
  0.000  0.000  0.000  1.000  0.000
  0.000  0.000  0.000  0.000  1.000
    occupations:
  1.000  0.000  0.000  0.000  0.000
  0.000  1.000  0.000  0.000  0.000
  0.000  0.000  1.000  0.000  0.000
  0.000  0.000  0.000  1.000  0.000
  0.000  0.000  0.000  0.000  1.000
atom  130   Tr[ns(na)] =   3.00000
    eigenvalues: 
  0.500  0.500  0.500
    eigenvectors:
  1.000  0.000  0.000
  0.000  1.000  0.000
  0.000  0.000  1.000
    occupations:
  0.500  0.000  0.000
  0.000  0.500  0.000
  0.000  0.000  0.500
atom  131   Tr[ns(na)] =   3.00000
    eigenvalues: 
  0.500  0.500  0.500
    eigenvectors:
  1.000  0.000  0.000
  0.000  1.000  0.000
  0.000  0.000  1.000
    occupations:
  0.500  0.000  0.000
  0.000  0.500  0.000
  0.000  0.000  0.500
atom  132   Tr[ns(na)] =   3.00000
    eigenvalues: 
  0.500  0.500  0.500
    eigenvectors:
  1.000  0.000  0.000
  0.000  1.000  0.000
  0.000  0.000  1.000
    occupations:
  0.500  0.000  0.000
  0.000  0.500  0.000
  0.000  0.000  0.500
atom  133   Tr[ns(na)] =   3.00000
    eigenvalues: 
  0.500  0.500  0.500
    eigenvectors:
  1.000  0.000  0.000
  0.000  1.000  0.000
  0.000  0.000  1.000
    occupations:
  0.500  0.000  0.000
  0.000  0.500  0.000
  0.000  0.000  0.500
atom  134   Tr[ns(na)] =   3.00000
    eigenvalues: 
  0.500  0.500  0.500
    eigenvectors:
  1.000  0.000  0.000
  0.000  1.000  0.000
  0.000  0.000  1.000
    occupations:
  0.500  0.000  0.000
  0.000  0.500  0.000
  0.000  0.000  0.500
atom  135   Tr[ns(na)] =   3.00000
    eigenvalues: 
  0.500  0.500  0.500
    eigenvectors:
  1.000  0.000  0.000
  0.000  1.000  0.000
  0.000  0.000  1.000
    occupations:
  0.500  0.000  0.000
  0.000  0.500  0.000
  0.000  0.000  0.500
atom  136   Tr[ns(na)] =   3.00000
    eigenvalues: 
  0.500  0.500  0.500
    eigenvectors:
  1.000  0.000  0.000
  0.000  1.000  0.000
  0.000  0.000  1.000
    occupations:
  0.500  0.000  0.000
  0.000  0.500  0.000
  0.000  0.000  0.500
atom  137   Tr[ns(na)] =   3.00000
    eigenvalues: 
  0.500  0.500  0.500
    eigenvectors:
  1.000  0.000  0.000
  0.000  1.000  0.000
  0.000  0.000  1.000
    occupations:
  0.500  0.000  0.000
  0.000  0.500  0.000
  0.000  0.000  0.500
N of occupied +U levels =  290.000000
 --- exit write_ns ---
 Atomic wfc used for LDA+U Projector are NOT orthogonalized
     Starting wfc are  569 randomized atomic wfcs

     total cpu time spent up to now is       49.9 secs

     per-process dynamical memory:   410.4 Mb

     Self-consistent Calculation

     iteration #  1     ecut=    60.00 Ry     beta=0.70
     Davidson diagonalization with overlap
     ethr =  1.00E-02,  avg # of iterations =  3.0
 --- enter write_ns ---
 LDA+U parameters:
U( 1)     =  7.00000000
alpha( 1) =  0.00000000
U( 2)     =  5.50000000
alpha( 2) =  0.00000000
U( 3)     =  5.50000000
alpha( 3) =  0.00000000
atom    1   Tr[ns(na)] =   4.79434
    eigenvalues: 
  0.712  0.843  0.843
    eigenvectors:
  1.000  0.000  0.000
  0.000  0.005  0.995
  0.000  0.995  0.005
    occupations:
  0.712 -0.000  0.000
 -0.000  0.843  0.000
  0.000  0.000  0.843
atom    2   Tr[ns(na)] =   4.80031
    eigenvalues: 
  0.715  0.842  0.843
    eigenvectors:
  1.000  0.000  0.000
  0.000  0.992  0.008
  0.000  0.008  0.992
    occupations:
  0.715 -0.000  0.000
 -0.000  0.842 -0.000
  0.000 -0.000  0.843
atom    3   Tr[ns(na)] =   4.79833
    eigenvalues: 
  0.713  0.842  0.844
    eigenvectors:
  1.000  0.000  0.000
  0.000  0.243  0.757
  0.000  0.757  0.243
    occupations:
  0.713 -0.000  0.000
 -0.000  0.843  0.001
  0.000  0.001  0.843
atom    4   Tr[ns(na)] =   4.80822
    eigenvalues: 
  0.718  0.842  0.844
    eigenvectors:
  1.000  0.000  0.000
  0.000  0.912  0.088
  0.000  0.088  0.912
    occupations:
  0.718  0.000  0.000
  0.000  0.842 -0.000
  0.000 -0.000  0.844
atom    5   Tr[ns(na)] =   4.80052
    eigenvalues: 
  0.714  0.842  0.844
    eigenvectors:
  1.000  0.000  0.000
  0.000  0.031  0.969
  0.000  0.969  0.031
    occupations:
  0.714 -0.000  0.000
 -0.000  0.844  0.000
  0.000  0.000  0.842
atom    6   Tr[ns(na)] =   4.80714
    eigenvalues: 
  0.718  0.842  0.844
    eigenvectors:
  1.000  0.000  0.000
  0.000  0.839  0.161
  0.000  0.161  0.839
    occupations:
  0.718 -0.000  0.001
 -0.000  0.842 -0.001
  0.001 -0.001  0.844
atom    7   Tr[ns(na)] =   4.80135
    eigenvalues: 
  0.715  0.842  0.844
    eigenvectors:
  1.000  0.000  0.000
  0.000  0.000  1.000
  0.000  1.000  0.000
    occupations:
  0.715  0.000  0.000
  0.000  0.844  0.000
  0.000  0.000  0.842
atom    8   Tr[ns(na)] =   4.80736
    eigenvalues: 
  0.718  0.843  0.843
    eigenvectors:
  1.000  0.000  0.000
  0.000  0.997  0.003
  0.000  0.003  0.997
    occupations:
  0.718  0.000  0.001
  0.000  0.843  0.000
  0.001  0.000  0.843
atom    9   Tr[ns(na)] =   4.80283
    eigenvalues: 
  0.715  0.842  0.844
    eigenvectors:
  1.000  0.000  0.000
  0.000  0.115  0.885
  0.000  0.885  0.115
    occupations:
  0.715  0.000  0.001
  0.000  0.844  0.000
  0.001  0.000  0.843
atom   10   Tr[ns(na)] =   4.81345
    eigenvalues: 
  0.720  0.842  0.845
    eigenvectors:
  1.000  0.000  0.000
  0.000  0.946  0.054
  0.000  0.054  0.946
    occupations:
  0.720  0.001  0.000
  0.001  0.842 -0.001
  0.000 -0.001  0.845
atom   11   Tr[ns(na)] =   4.81435
    eigenvalues: 
  0.720  0.842  0.845
    eigenvectors:
  1.000  0.000  0.000
  0.000  0.059  0.941
  0.000  0.941  0.059
    occupations:
  0.720  0.000  0.001
  0.000  0.845  0.001
  0.001  0.001  0.842
atom   12   Tr[ns(na)] =   4.82591
    eigenvalues: 
  0.726  0.841  0.846
    eigenvectors:
  1.000  0.000  0.000
  0.000  0.871  0.129
  0.000  0.129  0.871
    occupations:
  0.726  0.001  0.001
  0.001  0.842 -0.002
  0.001 -0.002  0.845
atom   13   Tr[ns(na)] =   4.81388
    eigenvalues: 
  0.720  0.842  0.845
    eigenvectors:
  1.000  0.000  0.000
  0.000  0.160  0.840
  0.000  0.840  0.160
    occupations:
  0.720  0.000  0.001
  0.000  0.844  0.001
  0.001  0.001  0.842
atom   14   Tr[ns(na)] =   4.81959
    eigenvalues: 
  0.723  0.841  0.845
    eigenvectors:
  1.000  0.000  0.000
  0.000  0.705  0.295
  0.000  0.295  0.705
    occupations:
  0.723  0.000  0.001
  0.000  0.842 -0.002
  0.001 -0.002  0.844
atom   15   Tr[ns(na)] =   4.80870
    eigenvalues: 
  0.718  0.842  0.844
    eigenvectors:
  1.000  0.000  0.000
  0.000  0.369  0.631
  0.000  0.631  0.369
    occupations:
  0.718  0.000 -0.000
  0.000  0.843  0.001
 -0.000  0.001  0.843
atom   16   Tr[ns(na)] =   4.81066
    eigenvalues: 
  0.719  0.842  0.844
    eigenvectors:
  1.000  0.000  0.000
  0.000  0.409  0.591
  0.000  0.591  0.409
    occupations:
  0.719  0.000 -0.000
  0.000  0.843 -0.001
 -0.000 -0.001  0.843
atom   17   Tr[ns(na)] =   4.80737
    eigenvalues: 
  0.718  0.842  0.843
    eigenvectors:
  1.000  0.000  0.000
  0.000  0.969  0.031
  0.000  0.031  0.969
    occupations:
  0.718 -0.000 -0.001
 -0.000  0.843  0.000
 -0.001  0.000  0.843
atom   18   Tr[ns(na)] =   4.80164
    eigenvalues: 
  0.715  0.842  0.844
    eigenvectors:
  1.000  0.000  0.000
  0.000  0.000  1.000
  0.000  1.000  0.000
    occupations:
  0.715 -0.000 -0.000
 -0.000  0.844 -0.000
 -0.000 -0.000  0.842
atom   19   Tr[ns(na)] =   4.80347
    eigenvalues: 
  0.716  0.842  0.844
    eigenvectors:
  1.000  0.000  0.000
  0.000  0.002  0.998
  0.000  0.998  0.002
    occupations:
  0.716  0.000  0.001
  0.000  0.844 -0.000
  0.001 -0.000  0.842
atom   20   Tr[ns(na)] =   4.81536
    eigenvalues: 
  0.721  0.842  0.845
    eigenvectors:
  1.000  0.000  0.000
  0.000  1.000  0.000
  0.000  0.000  1.000
    occupations:
  0.721  0.000  0.001
  0.000  0.842 -0.000
  0.001 -0.000  0.845
atom   21   Tr[ns(na)] =   4.82068
    eigenvalues: 
  0.724  0.841  0.846
    eigenvectors:
  1.000  0.000  0.000
  0.000  0.014  0.986
  0.000  0.986  0.014
    occupations:
  0.724  0.000  0.001
  0.000  0.846  0.001
  0.001  0.001  0.841
atom   22   Tr[ns(na)] =   4.84623
    eigenvalues: 
  0.735  0.841  0.847
    eigenvectors:
  1.000  0.000  0.000
  0.000  0.978  0.022
  0.000  0.022  0.978
    occupations:
  0.735  0.000  0.000
  0.000  0.841 -0.001
  0.000 -0.001  0.847
atom   23   Tr[ns(na)] =   4.84335
    eigenvalues: 
  0.734  0.841  0.847
    eigenvectors:
  1.000  0.000  0.000
  0.000  0.099  0.901
  0.000  0.901  0.099
    occupations:
  0.734 -0.000  0.000
 -0.000  0.847  0.002
  0.000  0.002  0.841
atom   24   Tr[ns(na)] =   4.86239
    eigenvalues: 
  0.743  0.841  0.848
    eigenvectors:
  1.000  0.000  0.000
  0.000  0.770  0.230
  0.000  0.230  0.770
    occupations:
  0.743  0.001  0.000
  0.001  0.842 -0.003
  0.000 -0.003  0.846
atom   25   Tr[ns(na)] =   4.84264
    eigenvalues: 
  0.733  0.841  0.847
    eigenvectors:
  1.000  0.000  0.000
  0.000  0.410  0.590
  0.000  0.590  0.410
    occupations:
  0.733  0.000 -0.000
  0.000  0.844  0.003
 -0.000  0.003  0.843
atom   26   Tr[ns(na)] =   4.84276
    eigenvalues: 
  0.734  0.841  0.847
    eigenvectors:
  1.000  0.000  0.000
  0.000  0.434  0.566
  0.000  0.566  0.434
    occupations:
  0.734 -0.000 -0.000
 -0.000  0.844 -0.003
 -0.000 -0.003  0.844
atom   27   Tr[ns(na)] =   4.82524
    eigenvalues: 
  0.726  0.841  0.845
    eigenvectors:
  1.000  0.000  0.000
  0.000  0.704  0.296
  0.000  0.296  0.704
    occupations:
  0.726  0.000 -0.001
  0.000  0.843  0.002
 -0.001  0.002  0.844
atom   28   Tr[ns(na)] =   4.81974
    eigenvalues: 
  0.722  0.842  0.846
    eigenvectors:
  1.000  0.000  0.000
  0.000  0.198  0.802
  0.000  0.802  0.198
    occupations:
  0.722  0.000 -0.000
  0.000  0.845 -0.001
 -0.000 -0.001  0.843
atom   29   Tr[ns(na)] =   4.81366
    eigenvalues: 
  0.720  0.842  0.844
    eigenvectors:
  1.000  0.000  0.000
  0.000  0.886  0.114
  0.000  0.114  0.886
    occupations:
  0.720 -0.000 -0.001
 -0.000  0.842  0.001
 -0.001  0.001  0.844
atom   30   Tr[ns(na)] =   4.80322
    eigenvalues: 
  0.715  0.842  0.844
    eigenvectors:
  1.000  0.000  0.000
  0.000  0.068  0.932
  0.000  0.932  0.068
    occupations:
  0.715 -0.000 -0.000
 -0.000  0.844 -0.000
 -0.000 -0.000  0.842
atom   31   Tr[ns(na)] =   4.80037
    eigenvalues: 
  0.715  0.842  0.843
    eigenvectors:
  1.000  0.000  0.000
  0.000  0.999  0.001
  0.000  0.001  0.999
    occupations:
  0.715  0.000 -0.000
  0.000  0.842 -0.000
 -0.000 -0.000  0.843
atom   32   Tr[ns(na)] =   4.79456
    eigenvalues: 
  0.712  0.842  0.843
    eigenvectors:
  1.000  0.000  0.000
  0.000  0.000  1.000
  0.000  1.000  0.000
    occupations:
  0.712  0.000 -0.000
  0.000  0.843 -0.000
 -0.000 -0.000  0.842
atom   33   Tr[ns(na)] =   4.79947
    eigenvalues: 
  0.714  0.842  0.843
    eigenvectors:
  1.000  0.000  0.000
  0.000  0.077  0.923
  0.000  0.923  0.077
    occupations:
  0.714 -0.000  0.001
 -0.000  0.843 -0.000
  0.001 -0.000  0.842
atom   34   Tr[ns(na)] =   4.80763
    eigenvalues: 
  0.718  0.841  0.845
    eigenvectors:
  1.000  0.000  0.000
  0.000  0.927  0.073
  0.000  0.073  0.927
    occupations:
  0.718 -0.000  0.000
 -0.000  0.842  0.001
  0.000  0.001  0.844
atom   35   Tr[ns(na)] =   4.81480
    eigenvalues: 
  0.721  0.841  0.845
    eigenvectors:
  1.000  0.000  0.000
  0.000  0.013  0.987
  0.000  0.987  0.013
    occupations:
  0.721 -0.000  0.001
 -0.000  0.845 -0.001
  0.001 -0.001  0.841
atom   36   Tr[ns(na)] =   4.84100
    eigenvalues: 
  0.733  0.841  0.847
    eigenvectors:
  1.000  0.000  0.000
  0.000  0.965  0.035
  0.000  0.035  0.965
    occupations:
  0.733 -0.000  0.000
 -0.000  0.841  0.001
  0.000  0.001  0.847
atom   37   Tr[ns(na)] =   4.86202
    eigenvalues: 
  0.743  0.840  0.848
    eigenvectors:
  1.000  0.000  0.000
  0.000  0.000  1.000
  0.000  1.000  0.000
    occupations:
  0.743 -0.000  0.000
 -0.000  0.848 -0.000
  0.000 -0.000  0.840
atom   38   Tr[ns(na)] =   4.91976
    eigenvalues: 
  0.768  0.842  0.849
    eigenvectors:
  1.000  0.000  0.000
  0.000  1.000  0.000
  0.000  0.000  1.000
    occupations:
  0.768  0.000 -0.001
  0.000  0.842  0.000
 -0.001  0.000  0.849
atom   39   Tr[ns(na)] =   4.91295
    eigenvalues: 
  0.765  0.843  0.849
    eigenvectors:
  1.000  0.000  0.000
  0.000  0.224  0.776
  0.000  0.776  0.224
    occupations:
  0.765 -0.001 -0.001
 -0.001  0.848  0.003
 -0.001  0.003  0.844
atom   40   Tr[ns(na)] =   4.91927
    eigenvalues: 
  0.768  0.843  0.849
    eigenvectors:
  1.000  0.000  0.000
  0.000  0.256  0.744
  0.000  0.744  0.256
    occupations:
  0.768 -0.001  0.001
 -0.001  0.848 -0.003
  0.001 -0.003  0.844
atom   41   Tr[ns(na)] =   4.86634
    eigenvalues: 
  0.744  0.841  0.848
    eigenvectors:
  1.000  0.000  0.000
  0.000  0.757  0.243
  0.000  0.243  0.757
    occupations:
  0.744  0.001 -0.001
  0.001  0.843  0.003
 -0.001  0.003  0.846
atom   42   Tr[ns(na)] =   4.84616
    eigenvalues: 
  0.735  0.841  0.847
    eigenvectors:
  1.000  0.000  0.000
  0.000  0.107  0.893
  0.000  0.893  0.107
    occupations:
  0.735 -0.000 -0.000
 -0.000  0.847 -0.002
 -0.000 -0.002  0.841
atom   43   Tr[ns(na)] =   4.82743
    eigenvalues: 
  0.726  0.841  0.846
    eigenvectors:
  1.000  0.000  0.000
  0.000  0.859  0.141
  0.000  0.141  0.859
    occupations:
  0.726  0.000 -0.001
  0.000  0.842  0.002
 -0.001  0.002  0.845
atom   44   Tr[ns(na)] =   4.81277
    eigenvalues: 
  0.720  0.842  0.845
    eigenvectors:
  1.000  0.000  0.000
  0.000  0.071  0.929
  0.000  0.929  0.071
    occupations:
  0.720  0.000 -0.000
  0.000  0.845 -0.001
 -0.000 -0.001  0.842
atom   45   Tr[ns(na)] =   4.80796
    eigenvalues: 
  0.718  0.842  0.844
    eigenvectors:
  1.000  0.000  0.000
  0.000  0.925  0.075
  0.000  0.075  0.925
    occupations:
  0.718  0.000  0.000
  0.000  0.842  0.001
  0.000  0.001  0.844
atom   46   Tr[ns(na)] =   4.79654
    eigenvalues: 
  0.713  0.842  0.843
    eigenvectors:
  1.000  0.000  0.000
  0.000  0.175  0.825
  0.000  0.825  0.175
    occupations:
  0.713  0.000 -0.000
  0.000  0.843 -0.000
 -0.000 -0.000  0.843
atom   47   Tr[ns(na)] =   4.79624
    eigenvalues: 
  0.713  0.843  0.843
    eigenvectors:
  1.000  0.000  0.000
  0.000  0.874  0.126
  0.000  0.126  0.874
    occupations:
  0.713  0.000 -0.000
  0.000  0.843  0.000
 -0.000  0.000  0.843
atom   48   Tr[ns(na)] =   4.79531
    eigenvalues: 
  0.712  0.843  0.843
    eigenvectors:
  1.000  0.000  0.000
  0.000  0.935  0.065
  0.000  0.065  0.935
    occupations:
  0.712  0.000 -0.000
  0.000  0.843 -0.000
 -0.000 -0.000  0.843
atom   49   Tr[ns(na)] =   4.79574
    eigenvalues: 
  0.712  0.842  0.843
    eigenvectors:
  1.000  0.000  0.000
  0.000  0.189  0.811
  0.000  0.811  0.189
    occupations:
  0.712 -0.000  0.000
 -0.000  0.843 -0.000
  0.000 -0.000  0.843
atom   50   Tr[ns(na)] =   4.80634
    eigenvalues: 
  0.717  0.842  0.844
    eigenvectors:
  1.000  0.000  0.000
  0.000  0.939  0.061
  0.000  0.061  0.939
    occupations:
  0.717 -0.000 -0.000
 -0.000  0.842  0.000
 -0.000  0.000  0.844
atom   51   Tr[ns(na)] =   4.81110
    eigenvalues: 
  0.719  0.842  0.845
    eigenvectors:
  1.000  0.000  0.000
  0.000  0.076  0.924
  0.000  0.924  0.076
    occupations:
  0.719 -0.000  0.000
 -0.000  0.845 -0.001
  0.000 -0.001  0.842
atom   52   Tr[ns(na)] =   4.82632
    eigenvalues: 
  0.726  0.841  0.846
    eigenvectors:
  1.000  0.000  0.000
  0.000  0.859  0.141
  0.000  0.141  0.859
    occupations:
  0.726 -0.001  0.001
 -0.001  0.842  0.002
  0.001  0.002  0.845
atom   53   Tr[ns(na)] =   4.84226
    eigenvalues: 
  0.733  0.841  0.847
    eigenvectors:
  1.000  0.000  0.000
  0.000  0.106  0.894
  0.000  0.894  0.106
    occupations:
  0.733 -0.000  0.000
 -0.000  0.847 -0.002
  0.000 -0.002  0.841
atom   54   Tr[ns(na)] =   4.86315
    eigenvalues: 
  0.743  0.841  0.848
    eigenvectors:
  1.000  0.000  0.000
  0.000  0.765  0.235
  0.000  0.235  0.765
    occupations:
  0.743 -0.001  0.001
 -0.001  0.842  0.003
  0.001  0.003  0.846
atom   55   Tr[ns(na)] =   4.91303
    eigenvalues: 
  0.765  0.842  0.849
    eigenvectors:
  1.000  0.000  0.000
  0.000  0.240  0.760
  0.000  0.760  0.240
    occupations:
  0.765  0.001 -0.001
  0.001  0.848 -0.003
 -0.001 -0.003  0.844
atom   56   Tr[ns(na)] =   4.91114
    eigenvalues: 
  0.764  0.842  0.849
    eigenvectors:
  1.000  0.000  0.000
  0.000  0.268  0.732
  0.000  0.732  0.268
    occupations:
  0.764  0.001  0.000
  0.001  0.847  0.003
  0.000  0.003  0.844
atom   57   Tr[ns(na)] =   4.92404
    eigenvalues: 
  0.770  0.843  0.849
    eigenvectors:
  1.000  0.000  0.000
  0.000  1.000  0.000
  0.000  0.000  1.000
    occupations:
  0.770  0.000  0.001
  0.000  0.843 -0.000
  0.001 -0.000  0.849
atom   58   Tr[ns(na)] =   4.86590
    eigenvalues: 
  0.744  0.840  0.848
    eigenvectors:
  1.000  0.000  0.000
  0.000  0.000  1.000
  0.000  1.000  0.000
    occupations:
  0.744  0.000 -0.001
  0.000  0.848  0.000
 -0.001  0.000  0.840
atom   59   Tr[ns(na)] =   4.84849
    eigenvalues: 
  0.736  0.841  0.847
    eigenvectors:
  1.000  0.000  0.000
  0.000  0.970  0.030
  0.000  0.030  0.970
    occupations:
  0.736  0.000 -0.000
  0.000  0.841  0.001
 -0.000  0.001  0.847
atom   60   Tr[ns(na)] =   4.81621
    eigenvalues: 
  0.722  0.841  0.846
    eigenvectors:
  1.000  0.000  0.000
  0.000  0.009  0.991
  0.000  0.991  0.009
    occupations:
  0.722  0.000 -0.000
  0.000  0.846 -0.000
 -0.000 -0.000  0.841
atom   61   Tr[ns(na)] =   4.80797
    eigenvalues: 
  0.718  0.841  0.845
    eigenvectors:
  1.000  0.000  0.000
  0.000  0.928  0.072
  0.000  0.072  0.928
    occupations:
  0.718  0.000 -0.000
  0.000  0.842  0.001
 -0.000  0.001  0.844
atom   62   Tr[ns(na)] =   4.79952
    eigenvalues: 
  0.714  0.842  0.844
    eigenvectors:
  1.000  0.000  0.000
  0.000  0.065  0.935
  0.000  0.935  0.065
    occupations:
  0.714  0.000 -0.001
  0.000  0.843 -0.000
 -0.001 -0.000  0.842
atom   63   Tr[ns(na)] =   4.79862
    eigenvalues: 
  0.714  0.842  0.843
    eigenvectors:
  1.000  0.000  0.000
  0.000  0.829  0.171
  0.000  0.171  0.829
    occupations:
  0.714  0.000  0.000
  0.000  0.842  0.000
  0.000  0.000  0.843
atom   64   Tr[ns(na)] =   4.79973
    eigenvalues: 
  0.714  0.842  0.843
    eigenvectors:
  1.000  0.000  0.000
  0.000  0.898  0.102
  0.000  0.102  0.898
    occupations:
  0.714  0.000 -0.000
  0.000  0.843 -0.000
 -0.000 -0.000  0.843
atom   65   Tr[ns(na)] =   4.80213
    eigenvalues: 
  0.715  0.842  0.844
    eigenvectors:
  1.000  0.000  0.000
  0.000  0.077  0.923
  0.000  0.923  0.077
    occupations:
  0.715  0.000  0.000
  0.000  0.844 -0.000
  0.000 -0.000  0.842
atom   66   Tr[ns(na)] =   4.81331
    eigenvalues: 
  0.720  0.842  0.844
    eigenvectors:
  1.000  0.000  0.000
  0.000  0.896  0.104
  0.000  0.104  0.896
    occupations:
  0.720  0.000  0.001
  0.000  0.842  0.001
  0.001  0.001  0.844
atom   67   Tr[ns(na)] =   4.81848
    eigenvalues: 
  0.722  0.842  0.845
    eigenvectors:
  1.000  0.000  0.000
  0.000  0.179  0.821
  0.000  0.821  0.179
    occupations:
  0.722 -0.000  0.000
 -0.000  0.845 -0.001
  0.000 -0.001  0.843
atom   68   Tr[ns(na)] =   4.82372
    eigenvalues: 
  0.725  0.842  0.845
    eigenvectors:
  1.000  0.000  0.000
  0.000  0.700  0.300
  0.000  0.300  0.700
    occupations:
  0.725 -0.000  0.001
 -0.000  0.843  0.002
  0.001  0.002  0.844
atom   69   Tr[ns(na)] =   4.84233
    eigenvalues: 
  0.733  0.841  0.847
    eigenvectors:
  1.000  0.000  0.000
  0.000  0.410  0.590
  0.000  0.590  0.410
    occupations:
  0.733  0.000  0.000
  0.000  0.845 -0.003
  0.000 -0.003  0.843
atom   70   Tr[ns(na)] =   4.84085
    eigenvalues: 
  0.733  0.841  0.847
    eigenvectors:
  1.000  0.000  0.000
  0.000  0.436  0.564
  0.000  0.564  0.436
    occupations:
  0.733 -0.000  0.000
 -0.000  0.844  0.003
  0.000  0.003  0.843
atom   71   Tr[ns(na)] =   4.86196
    eigenvalues: 
  0.742  0.841  0.848
    eigenvectors:
  1.000  0.000  0.000
  0.000  0.757  0.243
  0.000  0.243  0.757
    occupations:
  0.742 -0.000 -0.000
 -0.000  0.842 -0.003
 -0.000 -0.003  0.846
atom   72   Tr[ns(na)] =   4.84474
    eigenvalues: 
  0.734  0.841  0.847
    eigenvectors:
  1.000  0.000  0.000
  0.000  0.110  0.890
  0.000  0.890  0.110
    occupations:
  0.734  0.000 -0.000
  0.000  0.847  0.002
 -0.000  0.002  0.842
atom   73   Tr[ns(na)] =   4.84445
    eigenvalues: 
  0.734  0.841  0.847
    eigenvectors:
  1.000  0.000  0.000
  0.000  0.970  0.030
  0.000  0.030  0.970
    occupations:
  0.734 -0.000 -0.000
 -0.000  0.841 -0.001
 -0.000 -0.001  0.847
atom   74   Tr[ns(na)] =   4.82128
    eigenvalues: 
  0.724  0.841  0.846
    eigenvectors:
  1.000  0.000  0.000
  0.000  0.019  0.981
  0.000  0.981  0.019
    occupations:
  0.724 -0.000 -0.001
 -0.000  0.846  0.001
 -0.001  0.001  0.841
atom   75   Tr[ns(na)] =   4.81655
    eigenvalues: 
  0.722  0.842  0.845
    eigenvectors:
  1.000  0.000  0.000
  0.000  1.000  0.000
  0.000  0.000  1.000
    occupations:
  0.722  0.000 -0.001
  0.000  0.842 -0.000
 -0.001 -0.000  0.845
atom   76   Tr[ns(na)] =   4.80401
    eigenvalues: 
  0.716  0.842  0.844
    eigenvectors:
  1.000  0.000  0.000
  0.000  0.002  0.998
  0.000  0.997  0.002
    occupations:
  0.716 -0.000 -0.001
 -0.000  0.844 -0.000
 -0.001 -0.000  0.842
atom   77   Tr[ns(na)] =   4.80172
    eigenvalues: 
  0.715  0.842  0.843
    eigenvectors:
  1.000  0.000  0.000
  0.000  0.963  0.037
  0.000  0.037  0.963
    occupations:
  0.715  0.000  0.000
  0.000  0.842  0.000
  0.000  0.000  0.843
atom   78   Tr[ns(na)] =   4.80073
    eigenvalues: 
  0.715  0.842  0.843
    eigenvectors:
  1.000  0.000  0.000
  0.000  0.932  0.068
  0.000  0.068  0.932
    occupations:
  0.715 -0.000 -0.000
 -0.000  0.842 -0.000
 -0.000 -0.000  0.843
atom   79   Tr[ns(na)] =   4.81102
    eigenvalues: 
  0.719  0.842  0.844
    eigenvectors:
  1.000  0.000  0.000
  0.000  0.334  0.666
  0.000  0.666  0.334
    occupations:
  0.719 -0.000  0.000
 -0.000  0.843 -0.001
  0.000 -0.001  0.843
atom   80   Tr[ns(na)] =   4.80813
    eigenvalues: 
  0.718  0.842  0.844
    eigenvectors:
  1.000  0.000  0.000
  0.000  0.408  0.592
  0.000  0.592  0.408
    occupations:
  0.718 -0.000  0.000
 -0.000  0.843  0.001
  0.000  0.001  0.843
atom   81   Tr[ns(na)] =   4.81807
    eigenvalues: 
  0.723  0.841  0.845
    eigenvectors:
  1.000  0.000  0.000
  0.000  0.709  0.291
  0.000  0.291  0.709
    occupations:
  0.723 -0.000 -0.001
 -0.000  0.842 -0.002
 -0.001 -0.002  0.844
atom   82   Tr[ns(na)] =   4.81370
    eigenvalues: 
  0.720  0.842  0.845
    eigenvectors:
  1.000  0.000  0.000
  0.000  0.158  0.842
  0.000  0.842  0.158
    occupations:
  0.720 -0.000 -0.001
 -0.000  0.844  0.001
 -0.001  0.001  0.842
atom   83   Tr[ns(na)] =   4.82660
    eigenvalues: 
  0.726  0.841  0.846
    eigenvectors:
  1.000  0.000  0.000
  0.000  0.863  0.137
  0.000  0.137  0.863
    occupations:
  0.726 -0.001 -0.001
 -0.001  0.842 -0.002
 -0.001 -0.002  0.845
atom   84   Tr[ns(na)] =   4.81429
    eigenvalues: 
  0.720  0.842  0.845
    eigenvectors:
  1.000  0.000  0.000
  0.000  0.072  0.928
  0.000  0.928  0.071
    occupations:
  0.720 -0.000 -0.001
 -0.000  0.845  0.001
 -0.001  0.001  0.842
atom   85   Tr[ns(na)] =   4.81448
    eigenvalues: 
  0.720  0.842  0.845
    eigenvectors:
  1.000  0.000  0.000
  0.000  0.951  0.049
  0.000  0.049  0.951
    occupations:
  0.720 -0.000 -0.000
 -0.000  0.842 -0.001
 -0.000 -0.001  0.845
atom   86   Tr[ns(na)] =   4.80370
    eigenvalues: 
  0.716  0.842  0.844
    eigenvectors:
  1.000  0.000  0.000
  0.000  0.090  0.910
  0.000  0.910  0.090
    occupations:
  0.716 -0.000 -0.001
 -0.000  0.844  0.000
 -0.001  0.000  0.842
atom   87   Tr[ns(na)] =   4.80028
    eigenvalues: 
  0.714  0.842  0.843
    eigenvectors:
  1.000  0.000  0.000
  0.000  0.906  0.094
  0.000  0.094  0.906
    occupations:
  0.714  0.000  0.000
  0.000  0.842 -0.000
  0.000 -0.000  0.843
atom   88   Tr[ns(na)] =   4.79905
    eigenvalues: 
  0.714  0.842  0.843
    eigenvectors:
  1.000  0.000  0.000
  0.000  0.945  0.055
  0.000  0.055  0.945
    occupations:
  0.714 -0.000 -0.000
 -0.000  0.842  0.000
 -0.000  0.000  0.843
atom   89   Tr[ns(na)] =   4.80795
    eigenvalues: 
  0.718  0.842  0.844
    eigenvectors:
  1.000  0.000  0.000
  0.000  0.833  0.167
  0.000  0.167  0.833
    occupations:
  0.718 -0.000 -0.001
 -0.000  0.842 -0.001
 -0.001 -0.001  0.844
atom   90   Tr[ns(na)] =   4.80037
    eigenvalues: 
  0.714  0.842  0.844
    eigenvectors:
  1.000  0.000  0.000
  0.000  0.033  0.967
  0.000  0.967  0.033
    occupations:
  0.714  0.000 -0.000
  0.000  0.844  0.000
 -0.000  0.000  0.842
atom   91   Tr[ns(na)] =   4.80734
    eigenvalues: 
  0.717  0.842  0.844
    eigenvectors:
  1.000  0.000  0.000
  0.000  0.921  0.079
  0.000  0.079  0.921
    occupations:
  0.717 -0.000 -0.000
 -0.000  0.842 -0.000
 -0.000 -0.000  0.844
atom   92   Tr[ns(na)] =   4.79798
    eigenvalues: 
  0.713  0.842  0.844
    eigenvectors:
  1.000  0.000  0.000
  0.000  0.182  0.818
  0.000  0.818  0.182
    occupations:
  0.713  0.000 -0.000
  0.000  0.843  0.000
 -0.000  0.000  0.843
atom   93   Tr[ns(na)] =   4.80062
    eigenvalues: 
  0.714  0.842  0.843
    eigenvectors:
  1.000  0.000  0.000
  0.000  0.881  0.119
  0.000  0.119  0.881
    occupations:
  0.714 -0.000  0.000
 -0.000  0.843 -0.000
  0.000 -0.000  0.843
atom   94   Tr[ns(na)] =   4.79820
    eigenvalues: 
  0.714  0.842  0.843
    eigenvectors:
  1.000  0.000  0.000
  0.000  0.835  0.165
  0.000  0.165  0.835
    occupations:
  0.714 -0.000 -0.000
 -0.000  0.842  0.000
 -0.000  0.000  0.843
atom   95   Tr[ns(na)] =   4.79663
    eigenvalues: 
  0.713  0.843  0.843
    eigenvectors:
  1.000  0.000  0.000
  0.000  0.908  0.092
  0.000  0.092  0.908
    occupations:
  0.713 -0.000  0.000
 -0.000  0.843 -0.000
  0.000 -0.000  0.843
atom   96   Tr[ns(na)] =   4.79604
    eigenvalues: 
  0.713  0.842  0.843
    eigenvectors:
  1.000  0.000  0.000
  0.000  0.874  0.126
  0.000  0.126  0.874
    occupations:
  0.713 -0.000  0.000
 -0.000  0.842  0.000
  0.000  0.000  0.843
atom   97   Tr[ns(na)] =   4.75372
    eigenvalues: 
  0.762  0.778  0.837
    eigenvectors:
  1.000  0.000  0.000
  0.000  0.000  1.000
  0.000  0.999  0.000
    occupations:
  0.762 -0.000  0.000
 -0.000  0.837  0.001
  0.000  0.001  0.778
atom   98   Tr[ns(na)] =   4.76141
    eigenvalues: 
  0.765  0.779  0.837
    eigenvectors:
  1.000  0.000  0.000
  0.000  0.909  0.091
  0.000  0.091  0.909
    occupations:
  0.765 -0.000  0.000
 -0.000  0.784 -0.017
  0.000 -0.017  0.832
atom   99   Tr[ns(na)] =   4.93378
    eigenvalues: 
  0.775  0.818  0.874
    eigenvectors:
  1.000  0.000  0.000
  0.000  0.747  0.253
  0.000  0.253  0.747
    occupations:
  0.775  0.000 -0.000
  0.000  0.832 -0.024
 -0.000 -0.024  0.859
[...]
  1.000  0.000  0.000
  0.000  0.347  0.652
  0.000  0.653  0.347
    occupations:
  0.855 -0.000  0.000
 -0.000  0.900 -0.019
  0.000 -0.019  0.888
atom  131   Tr[ns(na)] =   5.20993
    eigenvalues: 
  0.777  0.883  0.945
    eigenvectors:
  1.000  0.000  0.000
  0.000  0.975  0.025
  0.000  0.025  0.975
    occupations:
  0.777 -0.000 -0.001
 -0.000  0.884 -0.010
 -0.001 -0.010  0.943
atom  132   Tr[ns(na)] =   5.21352
    eigenvalues: 
  0.778  0.884  0.945
    eigenvectors:
  1.000  0.000  0.000
  0.000  0.024  0.976
  0.000  0.976  0.024
    occupations:
  0.778  0.001  0.001
  0.001  0.944  0.009
  0.001  0.009  0.885
atom  133   Tr[ns(na)] =   5.27906
    eigenvalues: 
  0.852  0.874  0.914
    eigenvectors:
  1.000  0.000  0.000
  0.000  0.654  0.346
  0.000  0.346  0.654
    occupations:
  0.852 -0.000 -0.000
 -0.000  0.888  0.019
 -0.000  0.019  0.900
atom  134   Tr[ns(na)] =   5.21039
    eigenvalues: 
  0.777  0.883  0.945
    eigenvectors:
  1.000  0.000  0.000
  0.000  0.024  0.976
  0.000  0.976  0.024
    occupations:
  0.777 -0.001 -0.001
 -0.001  0.943  0.009
 -0.001  0.009  0.885
atom  135   Tr[ns(na)] =   5.28416
    eigenvalues: 
  0.854  0.874  0.914
    eigenvectors:
  1.000  0.000  0.000
  0.000  0.665  0.335
  0.000  0.335  0.665
    occupations:
  0.854  0.000  0.000
  0.000  0.888  0.019
  0.000  0.019  0.901
atom  136   Tr[ns(na)] =   5.21015
    eigenvalues: 
  0.777  0.883  0.945
    eigenvectors:
  1.000  0.000  0.000
  0.000  0.974  0.026
  0.000  0.026  0.974
    occupations:
  0.777  0.000  0.001
  0.000  0.885 -0.010
  0.001 -0.010  0.943
atom  137   Tr[ns(na)] =   5.28012
    eigenvalues: 
  0.853  0.874  0.914
    eigenvectors:
  1.000  0.000  0.000
  0.000  0.341  0.659
  0.000  0.659  0.341
    occupations:
  0.853  0.000 -0.000
  0.000  0.900 -0.019
 -0.000 -0.019  0.887
N of occupied +U levels =  689.140238
 --- exit write_ns ---

          k = 0.1667 0.1444-0.3690 (266428 PWs)   bands (ev):

   -25.8260 -25.7897 -25.7743 -25.7199 -24.6008 -23.9495 -23.9436 -23.3298
   -22.8075 -22.8012 -22.7696 -22.7443 -22.7229 -22.7007 -22.6487 -22.6368
   -22.6301 -22.5388 -22.5018 -22.4804 -22.3933 -22.3572 -22.2889 -22.2865
   -22.1862 -22.1650 -22.0826 -22.0685 -21.9593 -21.9275 -21.8566 -21.8296
   -21.7964 -21.7538 -21.4057 -21.3300 -21.1882 -21.1539 -21.0228 -21.0153
   -20.6432 -20.6313 -20.5890 -20.4120 -20.1882 -20.1758 -20.0036 -19.8853
   -19.7274 -19.5309 -19.4763 -19.3452 -19.3140 -19.2839 -19.2596 -19.2161
   -19.1619 -19.1436 -19.0241 -19.0042 -18.9676 -18.9215 -18.8011 -18.6724
   -18.3047 -18.3011 -17.9544 -17.7361 -17.7252 -17.3182 -17.1876 -17.0137
   -17.0024 -16.9958 -16.8578 -16.8446 -16.7835 -16.7676 -16.4602 -16.4300
   -16.2553 -16.2244 -16.2116 -16.1808 -16.1654 -16.1390 -15.9471 -15.9386
   -15.8864 -15.5320 -15.5168 -15.4684 -15.3873 -15.3070 -15.2408 -15.1929
   -15.1875 -15.0979 -15.0623 -14.8921 -14.8690 -14.7776 -14.6844 -14.6442
   -14.4613 -14.1622 -14.1410 -14.0412 -13.8658 -13.7860 -13.7776 -13.7741
   -13.7261 -13.6957 -13.6853 -13.6248 -13.5523 -13.5505 -13.5091 -13.4568
   -13.1400 -12.9777 -12.9470 -12.8886 -12.8775 -12.7328 -12.6738 -12.5326
   -12.4879 -12.4393 -12.3078 -12.3001 -12.1411 -12.1245 -12.0974 -12.0220
   -11.9225 -11.9166 -11.8863 -11.8755 -11.8273 -11.7912 -11.7837 -11.7203
   -11.6638 -11.6140 -11.5373 -11.4966 -11.4788 -11.4269 -11.4018 -11.3915
   -11.3526 -11.2964 -11.1551 -11.1201 -11.0875 -11.0694 -11.0643 -10.9872
   -10.8345 -10.7824 -10.6802 -10.6002 -10.5496 -10.5232 -10.5040 -10.4959
   -10.4829 -10.4746 -10.4517 -10.4024 -10.3959 -10.3925 -10.3353 -10.3210
   -10.3039 -10.2745 -10.2613 -10.1303 -10.0693 -10.0252  -9.9419  -9.9084
    -9.8722  -9.8528  -9.8505  -9.7940  -9.7651  -9.7529  -9.7263  -9.7172
    -9.6442  -9.6187  -9.5724  -9.5574  -9.4368  -9.4351  -9.4036  -9.3832
    -9.3095  -9.2619  -9.2463  -9.2428  -9.2196  -9.0447  -9.0197  -8.9333
    -8.8931  -8.8605  -8.8240  -8.8069  -8.7592  -8.7213  -8.6158  -8.6047
    -8.5692  -8.5371  -8.4207  -8.3400  -8.2818  -8.1893  -8.1169  -8.1030
    -8.0990  -8.0634  -8.0333  -8.0194  -7.9271  -7.9061  -7.8304  -7.8040
    -7.7763  -7.6659  -7.6549  -7.6176  -7.5989  -7.4911  -7.4274  -7.4046
    -7.4006  -7.3245  -7.2863  -7.2186  -7.0633  -7.0495  -7.0474  -6.9430
    -6.7857  -6.7694  -6.6343  -6.5886  -6.5865  -6.5717  -6.3586  -6.2247
    -6.1713  -6.1552  -6.0889  -6.0572  -6.0108  -5.9971  -5.9206  -5.9149
    -5.8100  -5.7794  -5.7129  -5.6724  -5.6630  -5.6251  -5.5725  -5.5301
    -5.5037  -5.4046  -5.3119  -5.2450  -5.1334  -5.0978  -4.9669  -4.9419
    -4.9069  -4.8240  -4.6969  -4.5672  -4.2592  -4.1464  -3.8151  -3.7989
    -2.9991  -2.9555  -2.2405  -2.2240  -1.8379  -1.8103  -0.8407  -0.8214
    -0.6274  -0.5378  -0.4862  -0.4242  -0.4225  -0.3586  -0.3399  -0.2990
    -0.2534  -0.2029  -0.0939   0.0750   0.1003   0.1250   0.3847   0.4238
     0.7008   0.7660   0.8614   0.9849   1.1663   1.2489   1.3242   1.3617

          k = 0.1667-0.4331-0.3690 (266460 PWs)   bands (ev):

   -25.8259 -25.7898 -25.7744 -25.7200 -24.6006 -23.9495 -23.9431 -23.3274
   -22.8216 -22.7921 -22.7856 -22.7807 -22.7233 -22.7100 -22.6457 -22.6262
   -22.5804 -22.5545 -22.3877 -22.3823 -22.3139 -22.2928 -22.2580 -22.2536
   -22.2037 -22.1848 -22.0961 -22.0939 -22.0849 -22.0183 -21.9914 -21.8316
   -21.7313 -21.7253 -21.6256 -21.6155 -21.4018 -21.3814 -20.6693 -20.6687
   -20.5729 -20.5598 -20.1492 -20.1370 -20.0285 -19.9554 -19.9450 -19.8798
   -19.8701 -19.7318 -19.6755 -19.6656 -19.4200 -19.4044 -19.2920 -19.2758
   -19.2328 -19.2121 -19.0805 -19.0705 -19.0025 -18.9899 -18.9202 -18.6716
   -18.0258 -18.0201 -17.9524 -17.7370 -17.7259 -17.3896 -17.3859 -17.2780
   -17.2768 -16.7816 -16.6027 -16.5918 -16.5141 -16.5107 -16.4563 -16.2656
   -16.2606 -16.2169 -16.1807 -16.1672 -16.0177 -16.0163 -15.9464 -15.7680
   -15.7667 -15.7587 -15.7581 -15.5313 -15.5148 -15.4704 -15.4441 -15.4410
   -15.4218 -15.4129 -15.0641 -14.7145 -14.7112 -14.5069 -14.5061 -14.4563
   -14.4505 -14.4495 -14.1940 -14.1922 -14.1902 -14.1876 -14.1626 -14.1378
   -13.7884 -13.7721 -13.7117 -13.6963 -13.0480 -12.9333 -12.9237 -12.9231
   -12.8780 -12.7073 -12.6626 -12.6588 -12.6093 -12.6091 -12.5800 -12.5790
   -12.5581 -12.5488 -12.5147 -12.5144 -12.4528 -12.2434 -12.2407 -12.2373
   -12.0882 -12.0611 -11.9155 -11.8859 -11.8707 -11.7822 -11.7779 -11.7003
   -11.6044 -11.5205 -11.5097 -11.4909 -11.4892 -11.4242 -11.3758 -11.3658
   -11.3300 -11.3292 -11.2008 -11.1910 -11.1908 -11.1593 -11.1137 -11.0623
   -11.0587 -11.0567 -10.9409 -10.6806 -10.5682 -10.4830 -10.4812 -10.4797
   -10.4643 -10.4631 -10.4616 -10.4441 -10.4088 -10.4081 -10.3624 -10.3336
   -10.3127 -10.2720 -10.2610 -10.0942 -10.0940  -9.9534  -9.9445  -9.9405
    -9.9300  -9.9262  -9.9197  -9.8366  -9.7410  -9.6474  -9.6247  -9.5517
    -9.5515  -9.4868  -9.4515  -9.4512  -9.4447  -9.4017  -9.1954  -9.1952
    -9.1284  -9.0616  -9.0615  -9.0498  -9.0461  -9.0295  -9.0006  -8.9729
    -8.9723  -8.8459  -8.7881  -8.7771  -8.7760  -8.7099  -8.7072  -8.5964
    -8.5475  -8.4873  -8.4861  -8.4768  -8.4050  -8.3469  -8.2881  -8.2127
    -8.1478  -8.0841  -8.0359  -8.0295  -7.9682  -7.9287  -7.8908  -7.7119
    -7.6734  -7.6659  -7.6633  -7.6509  -7.5880  -7.5877  -7.4855  -7.4829
    -7.4794  -7.4306  -7.4090  -7.3853  -7.3195  -7.2740  -7.2354  -6.8916
    -6.8898  -6.5882  -6.4064  -6.4037  -6.4013  -6.2622  -6.2198  -6.2186
    -6.2147  -6.1353  -6.0998  -6.0631  -5.9326  -5.9136  -5.8756  -5.8646
    -5.7661  -5.7169  -5.6828  -5.6538  -5.6032  -5.5846  -5.5205  -5.4747
    -5.4447  -5.4379  -5.3998  -5.3813  -5.2307  -5.2053  -4.9874  -4.9772
    -4.9443  -4.9327  -4.8239  -4.8136  -3.8933  -3.8026  -3.7428  -3.6999
    -3.4972  -3.4774  -2.2367  -2.2242  -1.3759  -1.3704  -1.1001  -1.0926
    -0.5836  -0.5261  -0.5165  -0.3285  -0.2437  -0.1865  -0.1567  -0.0487
    -0.0239  -0.0026   0.0132   0.0514   0.0634   0.1099   0.1213   0.2196
     0.2227   0.2972   0.3117   1.0737   1.0795   1.1404   1.1563   1.3303

          k =-0.5000 0.1444-0.3690 (266316 PWs)   bands (ev):

   -25.8255 -25.7892 -25.7745 -25.7198 -24.6004 -23.9499 -23.9432 -23.3290
   -22.8286 -22.8140 -22.8104 -22.8002 -22.7831 -22.7764 -22.7637 -22.7583
   -22.6719 -22.6639 -22.4321 -22.4212 -22.3488 -22.3443 -22.1883 -22.1226
   -22.1071 -21.9982 -21.9947 -21.8891 -21.8716 -21.8435 -21.6554 -21.6486
   -21.6177 -21.6111 -21.4699 -21.4596 -21.3947 -21.3898 -21.1533 -21.1508
   -20.8763 -20.8708 -20.5159 -20.5118 -20.3747 -20.3728 -20.0121 -19.8392
   -19.8327 -19.7258 -19.6409 -19.6327 -19.2794 -19.2703 -19.1658 -19.1612
   -19.0084 -18.9946 -18.9316 -18.6704 -18.6067 -18.6023 -18.2130 -18.2107
   -18.1876 -18.1872 -17.9623 -17.7394 -17.7371 -17.6860 -17.6794 -17.1319
   -17.1299 -17.1296 -17.1257 -16.9840 -16.9803 -16.7836 -16.4934 -16.4913
   -16.4518 -16.4296 -16.4272 -16.2085 -16.1732 -16.1597 -15.9873 -15.9849
   -15.9424 -15.5324 -15.5130 -15.5074 -15.5030 -15.4630 -15.0784 -15.0228
   -15.0188 -14.7592 -14.7585 -14.4488 -14.4469 -14.4288 -14.4072 -14.4027
   -14.1692 -14.1432 -14.0725 -14.0719 -14.0091 -14.0087 -13.8119 -13.8074
   -13.8053 -13.7943 -13.7912 -13.7777 -13.7229 -13.6892 -13.4664 -13.4653
   -13.0556 -12.9368 -12.8811 -12.7999 -12.7992 -12.7878 -12.7870 -12.6908
   -12.6737 -12.6729 -12.5243 -12.5210 -12.4255 -12.2735 -12.2512 -12.2505
   -12.1466 -12.0406 -11.9334 -11.8920 -11.8761 -11.7410 -11.6919 -11.6247
   -11.6216 -11.4997 -11.4932 -11.4156 -11.3893 -11.3873 -11.3749 -11.3535
   -11.3494 -11.2337 -11.0643 -11.0460 -11.0456 -10.7241 -10.6876 -10.6455
   -10.6446 -10.5673 -10.5477 -10.5470 -10.4981 -10.4649 -10.4392 -10.4323
   -10.4285 -10.3920 -10.3482 -10.3266 -10.3231 -10.3156 -10.2895 -10.2412
   -10.2401 -10.2264 -10.2238 -10.2012 -10.1844 -10.1812 -10.1606 -10.0983
   -10.0048  -9.9433  -9.9422  -9.9265  -9.9240  -9.8533  -9.8505  -9.8485
    -9.7653  -9.7280  -9.7273  -9.6707  -9.6558  -9.5791  -9.5519  -9.4571
    -9.4562  -9.4215  -9.3109  -9.2608  -9.0914  -9.0903  -9.0092  -8.9717
    -8.9249  -8.7757  -8.7576  -8.5779  -8.5622  -8.5612  -8.5379  -8.4655
    -8.4644  -8.3683  -8.3474  -8.3466  -8.3442  -8.2167  -8.2155  -8.1651
    -8.1625  -8.0778  -8.0493  -8.0356  -7.9098  -7.8654  -7.8237  -7.6831
    -7.6544  -7.6181  -7.4145  -7.4069  -7.4058  -7.3993  -7.3968  -7.3916
    -7.3566  -7.3206  -7.2892  -7.2645  -7.2499  -7.0246  -6.9922  -6.8615
    -6.8596  -6.7599  -6.7301  -6.5825  -6.5178  -6.5165  -6.4713  -6.4278
    -6.3164  -6.2793  -6.2769  -6.1771  -6.0530  -6.0185  -5.9905  -5.9415
    -5.9083  -5.8981  -5.7284  -5.7040  -5.6657  -5.6345  -5.6116  -5.5581
    -5.5417  -5.4220  -5.4077  -5.3742  -5.1088  -5.0996  -4.9992  -4.9753
    -4.5984  -4.5835  -4.2664  -4.2421  -3.9707  -3.8857  -3.8008  -3.7911
    -3.6662  -3.6062  -2.2378  -2.2259  -1.2320  -1.2310  -0.9834  -0.9604
    -0.8509  -0.8440  -0.6809  -0.6672  -0.5603  -0.4665  -0.4388  -0.2686
    -0.1793  -0.0382  -0.0025   0.1042   0.1103   0.2538   0.2680   0.4387
     0.4598   1.0902   1.1251   1.1291   1.1431   1.3179   1.3464   1.3740

          k =-0.5000-0.4331-0.3690 (266312 PWs)   bands (ev):

   -25.8257 -25.7894 -25.7744 -25.7201 -24.6007 -23.9500 -23.9430 -23.3261
   -22.8098 -22.8092 -22.7884 -22.7850 -22.7220 -22.7164 -22.6968 -22.6925
   -22.6328 -22.6326 -22.6308 -22.6272 -22.3039 -22.2920 -22.2864 -22.2771
   -22.1746 -22.0766 -22.0638 -21.8543 -21.6852 -21.6674 -21.6636 -21.6583
   -21.5512 -21.5405 -21.5399 -21.5354 -21.2744 -21.2722 -21.2658 -21.2651
   -20.8156 -20.8135 -20.8130 -20.8105 -20.0379 -19.9897 -19.9824 -19.9778
   -19.9547 -19.7220 -19.3086 -19.2940 -19.2353 -19.2271 -19.2030 -19.1997
   -19.0091 -19.0036 -18.9242 -18.6900 -18.6751 -18.6696 -18.6646 -18.6459
   -18.1655 -18.1643 -18.1525 -18.1522 -17.9592 -17.7373 -17.7337 -16.8990
   -16.8974 -16.8923 -16.8914 -16.7822 -16.4526 -16.3404 -16.3381 -16.3380
   -16.3324 -16.2258 -16.1975 -16.1815 -16.1778 -16.1626 -16.1578 -16.1553
   -15.9448 -15.5326 -15.5144 -15.4697 -15.4050 -15.4042 -15.4032 -15.4014
   -15.4008 -15.4004 -15.3997 -15.3974 -15.0776 -14.4264 -14.1666 -14.1457
   -13.8618 -13.8611 -13.8528 -13.8513 -13.8053 -13.7883 -13.7285 -13.6767
   -13.4783 -13.4756 -13.4734 -13.4714 -13.3775 -13.3773 -13.3761 -13.3760
   -13.3022 -13.3020 -13.3009 -13.3008 -13.0237 -12.9846 -12.8812 -12.6813
   -12.5727 -12.5724 -12.5681 -12.5679 -12.5416 -12.1828 -12.1268 -12.0476
   -11.9420 -11.9097 -11.8749 -11.8613 -11.6642 -11.6629 -11.6623 -11.6615
   -11.6597 -11.6593 -11.6581 -11.6580 -11.6329 -11.5178 -11.4879 -11.4127
   -11.0668 -10.9986 -10.9134 -10.8685 -10.8678 -10.8656 -10.8605 -10.8378
   -10.8346 -10.8335 -10.8303 -10.7779 -10.7285 -10.6551 -10.6433 -10.5372
   -10.5214 -10.4534 -10.4460 -10.4442 -10.4354 -10.4237 -10.4197 -10.3562
   -10.3541 -10.3012 -10.2698 -10.2255 -10.2178  -9.8685  -9.8680  -9.8659
    -9.8652  -9.7575  -9.7547  -9.7512  -9.7489  -9.7442  -9.7319  -9.7200
    -9.6914  -9.5568  -9.5563  -9.5539  -9.5534  -9.4148  -9.3217  -9.2788
    -9.2077  -9.1061  -9.1058  -9.1022  -9.1017  -9.0776  -8.9918  -8.9823
    -8.9821  -8.9812  -8.9809  -8.8493  -8.7970  -8.7770  -8.7299  -8.5893
    -8.5424  -8.3737  -8.2775  -8.2339  -8.2260  -8.2179  -8.2170  -8.2151
    -8.2135  -8.0638  -8.0336  -8.0269  -7.9880  -7.9871  -7.9861  -7.9851
    -7.9072  -7.8510  -7.6607  -7.6561  -7.4141  -7.3978  -7.2819  -7.2441
    -7.2169  -7.2112  -7.1193  -6.9130  -6.8984  -6.8659  -6.8488  -6.8482
    -6.8480  -6.8429  -6.8402  -6.5825  -6.4672  -6.4652  -6.4602  -6.4577
    -6.4376  -6.4227  -6.3802  -6.3770  -6.2113  -6.0726  -5.9221  -5.9151
    -5.8509  -5.8266  -5.6964  -5.6567  -5.6274  -5.6183  -5.5659  -5.5561
    -5.5043  -5.4344  -5.4019  -5.3789  -5.0269  -5.0051  -4.9879  -4.9750
    -4.3426  -4.3068  -4.2837  -4.2790  -4.0697  -4.0079  -4.0047  -4.0035
    -3.7995  -3.7484  -2.2379  -2.2257  -0.9588  -0.9346  -0.9307  -0.9274
    -0.6513  -0.6034  -0.6015  -0.5845  -0.5037  -0.4331  -0.3963  -0.3786
    -0.3637  -0.2485  -0.1560   0.0666   0.1002   0.1687   0.1775   0.1822
     0.1925   0.8974   0.9400   0.9450   0.9484   1.3291   1.3570   1.3891

          k =-0.1667 0.1444 0.3690 (266428 PWs)   bands (ev):

   -25.8259 -25.7897 -25.7743 -25.7198 -24.6007 -23.9495 -23.9436 -23.3301
   -22.8097 -22.7985 -22.7709 -22.7408 -22.7195 -22.6984 -22.6495 -22.6465
   -22.6247 -22.5393 -22.5046 -22.4815 -22.3937 -22.3616 -22.2956 -22.2773
   -22.1949 -22.1482 -22.0832 -22.0696 -21.9503 -21.9333 -21.8609 -21.8307
   -21.7966 -21.7568 -21.4024 -21.3296 -21.1876 -21.1539 -21.0240 -21.0148
   -20.6426 -20.6307 -20.5915 -20.4147 -20.1852 -20.1742 -20.0104 -19.8777
   -19.7271 -19.5344 -19.4783 -19.3469 -19.2935 -19.2837 -19.2796 -19.2125
   -19.1658 -19.1401 -19.0152 -18.9961 -18.9887 -18.9134 -18.8067 -18.6700
   -18.3040 -18.3012 -17.9554 -17.7354 -17.7253 -17.3170 -17.1874 -17.0149
   -17.0026 -16.9960 -16.8591 -16.8438 -16.7850 -16.7658 -16.4597 -16.4295
   -16.2548 -16.2258 -16.2130 -16.1776 -16.1654 -16.1386 -15.9533 -15.9351
   -15.8850 -15.5319 -15.5160 -15.4686 -15.3880 -15.3072 -15.2404 -15.1927
   -15.1879 -15.0980 -15.0621 -14.8918 -14.8692 -14.7774 -14.6843 -14.6441
   -14.4611 -14.1625 -14.1412 -14.0412 -13.8660 -13.7859 -13.7799 -13.7710
   -13.7263 -13.6976 -13.6843 -13.6244 -13.5525 -13.5502 -13.5095 -13.4568
   -13.1401 -12.9825 -12.9391 -12.8893 -12.8771 -12.7345 -12.6739 -12.5327
   -12.4940 -12.4393 -12.3075 -12.2999 -12.1637 -12.1248 -12.0806 -11.9733
   -11.9309 -11.9164 -11.8828 -11.8725 -11.8274 -11.7919 -11.7894 -11.7202
   -11.6903 -11.6633 -11.5184 -11.4987 -11.4782 -11.4248 -11.4001 -11.3532
   -11.3453 -11.3172 -11.1549 -11.1201 -11.0875 -11.0694 -11.0646 -10.9355
   -10.8550 -10.8344 -10.6749 -10.6004 -10.5494 -10.5287 -10.5211 -10.4961
   -10.4855 -10.4760 -10.4305 -10.4019 -10.3937 -10.3534 -10.3343 -10.3190
   -10.3167 -10.2783 -10.2384 -10.1303 -10.0692 -10.0252  -9.9828  -9.9420
    -9.8719  -9.8513  -9.8110  -9.7942  -9.7640  -9.7540  -9.7265  -9.7257
    -9.6531  -9.6187  -9.5724  -9.5349  -9.4379  -9.4342  -9.3833  -9.3745
    -9.3193  -9.3087  -9.2463  -9.2234  -9.2164  -9.0835  -8.9574  -8.9335
    -8.8929  -8.8606  -8.8237  -8.8044  -8.7942  -8.7152  -8.6157  -8.6063
    -8.5767  -8.5260  -8.3999  -8.3399  -8.2750  -8.1892  -8.1317  -8.1168
    -8.1030  -8.0793  -8.0321  -8.0220  -7.9271  -7.9032  -7.8418  -7.7762
    -7.7227  -7.6777  -7.6658  -7.6503  -7.5817  -7.4911  -7.4522  -7.4075
    -7.3942  -7.3245  -7.2838  -7.2187  -7.0633  -7.0475  -7.0231  -6.9442
    -6.7955  -6.7856  -6.6316  -6.5965  -6.5864  -6.5568  -6.3545  -6.2409
    -6.1982  -6.1118  -6.0603  -6.0569  -6.0109  -5.9967  -5.9224  -5.9160
    -5.8430  -5.8132  -5.7084  -5.6666  -5.6267  -5.5840  -5.5749  -5.5552
    -5.5199  -5.4066  -5.3179  -5.2699  -5.1312  -5.0803  -4.9702  -4.9425
    -4.9102  -4.8102  -4.6965  -4.5559  -4.2563  -4.1635  -3.8143  -3.8000
    -2.9912  -2.9616  -2.2435  -2.2217  -1.8432  -1.8034  -0.8432  -0.8234
    -0.5946  -0.5777  -0.5024  -0.4251  -0.4111  -0.3301  -0.3219  -0.2939
    -0.2692  -0.2018  -0.1136   0.0586   0.0859   0.1365   0.3960   0.4352
     0.7105   0.7596   0.8662   0.9781   1.1614   1.2523   1.3377   1.3444

     highest occupied, lowest unoccupied level (ev):    -0.9588   -1.8103

!    total energy              =   -1712.81776101 Ry
     Harris-Foulkes estimate   =   -1712.81776144 Ry
     estimated scf accuracy    <       0.00000055 Ry

     The total energy is the sum of the following terms:

     one-electron contribution =  -17101.40878896 Ry
     hartree contribution      =    8659.00763192 Ry
     xc contribution           =    -516.29344183 Ry
     ewald contribution        =    7223.55957294 Ry
     Hubbard energy            =      22.31726493 Ry

     convergence has been achieved in  41 iterations

     Writing output data file x0.scf.slg.gs.ex1.3k.save
 
     init_run     :     47.06s CPU     49.46s WALL (       1 calls)
     electrons    :   3192.27s CPU   3330.13s WALL (       1 calls)

     Called by init_run:
     wfcinit      :     44.15s CPU     46.15s WALL (       1 calls)
     potinit      :      0.90s CPU      0.94s WALL (       1 calls)

     Called by electrons:
     c_bands      :   2467.65s CPU   2572.27s WALL (      41 calls)
     sum_band     :    294.67s CPU    313.71s WALL (      41 calls)
     v_of_rho     :      3.62s CPU      3.72s WALL (      42 calls)
     mix_rho      :    425.98s CPU    439.82s WALL (      41 calls)

     Called by c_bands:
     init_us_2    :      3.51s CPU      3.76s WALL (     420 calls)
     cegterg      :   2454.48s CPU   2558.70s WALL (     205 calls)

     Called by sum_band:

     Called by *egterg:
     h_psi        :   1648.83s CPU   1724.69s WALL (     822 calls)
     g_psi        :      3.67s CPU      3.72s WALL (     612 calls)
     cdiaghg      :    321.18s CPU    326.86s WALL (     817 calls)

     Called by h_psi:
     add_vuspsi   :     41.82s CPU     41.70s WALL (     822 calls)
     vhpsi        :    648.95s CPU    650.07s WALL (     822 calls)

     General routines
     calbec       :    220.16s CPU    220.73s WALL (    1854 calls)
     fft          :      2.95s CPU      3.21s WALL (     461 calls)
     ffts         :    295.28s CPU    294.77s WALL (   49724 calls)
     fftw         :   1073.34s CPU   1132.51s WALL (  342926 calls)
     davcio       :      0.06s CPU      3.23s WALL (      10 calls)
 
     Parallel routines
     fft_scatter  :    664.55s CPU    843.87s WALL (  393111 calls)

     Hubbard U routines
     new_ns       :     61.46s CPU     61.55s WALL (      41 calls)
     vhpsi        :    648.95s CPU    650.07s WALL (     822 calls)
 
     PWSCF        : 54m 4.12s CPU    56m27.81s WALL

 
   This run was terminated on:  16:55: 4   8Sep2019            

=------------------------------------------------------------------------------=
   JOB DONE.
=------------------------------------------------------------------------------=
