
     Program PWSCF v.5.2.0 starts on  7Sep2019 at 19:34:22 

     This program is part of the open-source Quantum ESPRESSO suite
     for quantum simulation of materials; please cite
         "P. Giannozzi et al., J. Phys.:Condens. Matter 21 395502 (2009);
          URL http://www.quantum-espresso.org", 
     in publications or presentations arising from this work. More details at
     http://www.quantum-espresso.org/quote

     Parallel version (MPI & OpenMP), running on     256 processor cores
     Number of MPI processes:                32
     Threads/MPI process:                     8
     R & G space division:  proc/nbgrp/npool/nimage =      32
     Waiting for input...
     Reading input from standard input
Warning: card &IONS ignored
Warning: card    ION_DYNAMICS     = 'BFGS' , ignored
Warning: card    TRUST_RADIUS_INI =  1.D-2 , ignored
Warning: card / ignored

     Current dimensions of program PWSCF are:
     Max number of different atomic species (ntypx) = 10
     Max number of k-points (npk) =  40000
     Max angular momentum in pseudopotentials (lmaxx) =  3

     Subspace diagonalization in iterative solution of the eigenvalue problem:
     scalapack distributed-memory algorithm (size of sub-group:  4*  4 procs)

 
     Parallelization info
     --------------------
     sticks:   dense  smooth     PW     G-vecs:    dense   smooth      PW
     Min         535     535    139                66599    66599    8883
     Max         536     536    140                66604    66604    8890
     Sum       17139   17139   4479              2131249  2131249  284417
 


     bravais-lattice index     =            0
     lattice parameter (alat)  =      27.8924  a.u.
     unit-cell volume          =   33945.5266 (a.u.)^3
     number of atoms/cell      =          153
     number of atomic types    =            4
     number of electrons       =       580.00
     number of Kohn-Sham states=          320
     kinetic-energy cutoff     =      60.0000  Ry
     charge density cutoff     =     240.0000  Ry
     convergence threshold     =      1.0E-06
     mixing beta               =       0.7000
     number of iterations used =            8  local-TF  mixing
     Exchange-correlation      = SLA-PW-PBX-PBC ( 1  4  3  4 0 0)

     celldm(1)=  27.892358  celldm(2)=   0.000000  celldm(3)=   0.000000
     celldm(4)=   0.000000  celldm(5)=   0.000000  celldm(6)=   0.000000

     crystal axes: (cart. coord. in units of alat)
               a(1) = (   1.000000   0.000000   0.000000 )  
               a(2) = (   0.000000   1.154472   0.000000 )  
               a(3) = (   0.000000   0.000000   1.355014 )  

     reciprocal axes: (cart. coord. in units 2 pi/alat)
               b(1) = (  1.000000  0.000000  0.000000 )  
               b(2) = (  0.000000  0.866197  0.000000 )  
               b(3) = (  0.000000  0.000000  0.738000 )  


     PseudoPot. # 1 for Zn read from file:
     /home/sacss11/scratch/sacss11/hmah/jobs/g_znpc/pp/Zn.pbe-d-hgh.UPF
     MD5 check sum: 840b59d6b5d6b778dd7efd2cc31f93c9
     Pseudo is Norm-conserving, Zval = 12.0
     Generated in analytical, separable form
     Using radial grid of 1201 points,  6 beta functions with: 
                l(1) =   0
                l(2) =   0
                l(3) =   0
                l(4) =   1
                l(5) =   1
                l(6) =   2

     PseudoPot. # 2 for  N read from file:
     /home/sacss11/scratch/sacss11/hmah/jobs/g_znpc/pp/N.pbe-hgh.UPF
     MD5 check sum: 1504e9c56d21d37eacabc67df972de26
     Pseudo is Norm-conserving, Zval =  5.0
     Generated in analytical, separable form
     Using radial grid of 1085 points,  1 beta functions with: 
                l(1) =   0

     PseudoPot. # 3 for  C read from file:
     /home/sacss11/scratch/sacss11/hmah/jobs/g_znpc/pp/C.pbe-hgh.UPF
     MD5 check sum: ca26ff84b356733038fc2f5c468d1892
     Pseudo is Norm-conserving, Zval =  4.0
     Generated in analytical, separable form
     Using radial grid of 1073 points,  1 beta functions with: 
                l(1) =   0

     PseudoPot. # 4 for  H read from file:
     /home/sacss11/scratch/sacss11/hmah/jobs/g_znpc/pp/H.pbe-hgh.UPF
     MD5 check sum: 50ae4f52d34cf16cdfed4bce9c5a191e
     Pseudo is Norm-conserving, Zval =  1.0
     Generated in analytical, separable form
     Using radial grid of  929 points,  0 beta functions with: 

     atomic species   valence    mass     pseudopotential
        Zn            12.00    65.39000     Zn( 1.00)
        N              5.00    14.00674      N( 1.00)
        C              4.00    12.01070      C( 1.00)
        H              1.00     1.00794      H( 1.00)


     Simplified LDA+U calculation (l_max = 2) with parameters (eV):
     atomic species    L          U    alpha       J0     beta
        Zn             2     7.0000   0.0000   0.0000   0.0000
        N              1     5.5000   0.0000   0.0000   0.0000
        C              1     5.5000   0.0000   0.0000   0.0000



     No symmetry found



   Cartesian axes

     site n.     atom                  positions (alat units)
         1           C   tau(   1) = (   0.0005331  -0.0007680   0.1364003  )
         2           C   tau(   2) = (   0.0005436   0.0954696   0.1360866  )
         3           C   tau(   3) = (   0.1672339  -0.0007321   0.1361813  )
         4           C   tau(   4) = (   0.1672873   0.0954781   0.1356568  )
         5           C   tau(   5) = (   0.0839428   0.1435446   0.1357904  )
         6           C   tau(   6) = (   0.0839298   0.2397561   0.1352565  )
         7           C   tau(   7) = (   0.0005255   0.2878242   0.1350901  )
         8           C   tau(   8) = (   0.0005193   0.3840567   0.1348964  )
         9           C   tau(   9) = (   0.3338789  -0.0007065   0.1357297  )
        10           C   tau(  10) = (   0.3339076   0.0954758   0.1348015  )
        11           C   tau(  11) = (   0.2506178   0.1435506   0.1347453  )
        12           C   tau(  12) = (   0.2506076   0.2397326   0.1341436  )
        13           C   tau(  13) = (   0.1672827   0.2878289   0.1345674  )
        14           C   tau(  14) = (   0.1672493   0.3840391   0.1343189  )
        15           C   tau(  15) = (   0.0838999   0.4321317   0.1347100  )
        16           C   tau(  16) = (   0.0838939   0.5283346   0.1346159  )
        17           C   tau(  17) = (   0.0005101   0.5764320   0.1348991  )
        18           C   tau(  18) = (   0.0005077   0.6726500   0.1350798  )
        19           C   tau(  19) = (   0.5005339  -0.0007450   0.1358908  )
        20           C   tau(  20) = (   0.5005399   0.0954867   0.1350756  )
        21           C   tau(  21) = (   0.4172400   0.1435550   0.1343518  )
        22           C   tau(  22) = (   0.4172540   0.2397408   0.1335666  )
        23           C   tau(  23) = (   0.3338974   0.2878312   0.1334624  )
        24           C   tau(  24) = (   0.3338470   0.3840373   0.1331259  )
        25           C   tau(  25) = (   0.2505451   0.4321320   0.1336034  )
        26           C   tau(  26) = (   0.2505082   0.5283335   0.1335608  )
        27           C   tau(  27) = (   0.1671990   0.5764585   0.1340873  )
        28           C   tau(  28) = (   0.1671839   0.6726350   0.1343091  )
        29           C   tau(  29) = (   0.0838679   0.7207112   0.1349413  )
        30           C   tau(  30) = (   0.0838577   0.8169009   0.1355401  )
        31           C   tau(  31) = (   0.0004917   0.8649999   0.1360772  )
        32           C   tau(  32) = (   0.0005023   0.9612502   0.1364052  )
        33           C   tau(  33) = (   0.6671939  -0.0007528   0.1360137  )
        34           C   tau(  34) = (   0.6672206   0.0954699   0.1353345  )
        35           C   tau(  35) = (   0.5838930   0.1435778   0.1348154  )
        36           C   tau(  36) = (   0.5839045   0.2397493   0.1338422  )
        37           C   tau(  37) = (   0.5005594   0.2878189   0.1332753  )
        38           C   tau(  38) = (   0.5005408   0.3840386   0.1327039  )
        39           C   tau(  39) = (   0.4171912   0.4321336   0.1326660  )
        40           C   tau(  40) = (   0.4171577   0.5283411   0.1327197  )
        41           C   tau(  41) = (   0.3338005   0.5764616   0.1332221  )
        42           C   tau(  42) = (   0.3337951   0.6726402   0.1337623  )
        43           C   tau(  43) = (   0.2504849   0.7207113   0.1342760  )
        44           C   tau(  44) = (   0.2504969   0.8169133   0.1349804  )
        45           C   tau(  45) = (   0.1671898   0.8650031   0.1355600  )
        46           C   tau(  46) = (   0.1671899   0.9612418   0.1361323  )
        47           C   tau(  47) = (   0.0838683   1.0093578   0.1363979  )
        48           C   tau(  48) = (   0.0838947   1.1055897   0.1364320  )
        49           C   tau(  49) = (   0.8338446  -0.0007632   0.1361505  )
        50           C   tau(  50) = (   0.8338412   0.0954670   0.1355961  )
        51           C   tau(  51) = (   0.7505560   0.1435584   0.1349639  )
        52           C   tau(  52) = (   0.7505614   0.2397616   0.1341895  )
        53           C   tau(  53) = (   0.6672259   0.2878401   0.1336197  )
        54           C   tau(  54) = (   0.6672187   0.3840347   0.1331038  )
        55           C   tau(  55) = (   0.5838907   0.4321204   0.1326537  )
        56           C   tau(  56) = (   0.5838613   0.5283251   0.1326729  )
        57           C   tau(  57) = (   0.5004830   0.5764550   0.1327792  )
        58           C   tau(  58) = (   0.5004658   0.6726581   0.1334000  )
        59           C   tau(  59) = (   0.4171471   0.7207195   0.1339786  )
        60           C   tau(  60) = (   0.4171639   0.8168878   0.1349058  )
        61           C   tau(  61) = (   0.3338104   0.8649985   0.1353660  )
        62           C   tau(  62) = (   0.3338410   0.9612319   0.1360108  )
        63           C   tau(  63) = (   0.2505384   1.0093674   0.1362102  )
        64           C   tau(  64) = (   0.2505669   1.1056075   0.1361615  )
        65           C   tau(  65) = (   0.9172010   0.1435645   0.1355780  )
        66           C   tau(  66) = (   0.9171832   0.2397601   0.1349550  )
        67           C   tau(  67) = (   0.8338392   0.2878475   0.1342559  )
        68           C   tau(  68) = (   0.8338257   0.3840364   0.1340112  )
        69           C   tau(  69) = (   0.7505377   0.4321316   0.1334706  )
        70           C   tau(  70) = (   0.7505056   0.5283262   0.1335607  )
        71           C   tau(  71) = (   0.6671764   0.5764535   0.1331298  )
        72           C   tau(  72) = (   0.6671309   0.6726396   0.1335115  )
        73           C   tau(  73) = (   0.5838014   0.7207231   0.1336663  )
        74           C   tau(  74) = (   0.5838174   0.8169073   0.1344289  )
        75           C   tau(  75) = (   0.5004937   0.8649792   0.1351466  )
        76           C   tau(  76) = (   0.5005026   0.9612222   0.1359208  )
        77           C   tau(  77) = (   0.4171976   1.0093553   0.1361583  )
        78           C   tau(  78) = (   0.4172107   1.1055889   0.1360526  )
        79           C   tau(  79) = (   0.9171586   0.4321237   0.1345776  )
        80           C   tau(  80) = (   0.9171540   0.5283268   0.1346877  )
        81           C   tau(  81) = (   0.8337791   0.5764474   0.1343000  )
        82           C   tau(  82) = (   0.8337486   0.6726402   0.1345759  )
        83           C   tau(  83) = (   0.7504486   0.7207288   0.1341734  )
        84           C   tau(  84) = (   0.7504404   0.8169073   0.1347824  )
        85           C   tau(  85) = (   0.6671262   0.8649886   0.1348533  )
        86           C   tau(  86) = (   0.6671571   0.9611824   0.1357552  )
        87           C   tau(  87) = (   0.5838527   1.0093289   0.1360737  )
        88           C   tau(  88) = (   0.5838650   1.1055627   0.1361586  )
        89           C   tau(  89) = (   0.9171280   0.7207065   0.1352593  )
        90           C   tau(  90) = (   0.9171175   0.8169176   0.1357966  )
        91           C   tau(  91) = (   0.8337471   0.8649898   0.1356765  )
        92           C   tau(  92) = (   0.8338009   0.9612105   0.1361933  )
        93           C   tau(  93) = (   0.7504926   1.0093106   0.1361733  )
        94           C   tau(  94) = (   0.7505224   1.1055517   0.1362217  )
        95           C   tau(  95) = (   0.9171667   1.0093323   0.1364385  )
        96           C   tau(  96) = (   0.9171941   1.1055645   0.1364000  )
        97           C   tau(  97) = (   0.3922257   0.6535970   0.3703805  )
        98           C   tau(  98) = (   0.3053413   0.5322501   0.3706590  )
        99           C   tau(  99) = (   0.3005287   0.6850755   0.3706588  )
       100           C   tau( 100) = (   0.2461303   0.6089040   0.3707838  )
       101           C   tau( 101) = (   0.2634487   0.7693568   0.3707568  )
       102           C   tau( 102) = (   0.1544258   0.6164793   0.3710235  )
       103           C   tau( 103) = (   0.5474073   0.6785627   0.3708973  )
       104           C   tau( 104) = (   0.3299881   0.3766256   0.3713703  )
       105           C   tau( 105) = (   0.7002057   0.6827193   0.3723668  )
       106           C   tau( 106) = (   0.6243845   0.7375654   0.3720037  )
       107           C   tau( 107) = (   0.6681071   0.5911730   0.3712990  )
       108           C   tau( 108) = (   0.7846591   0.7193566   0.3734631  )
       109           C   tau( 109) = (   0.6325156   0.8292175   0.3726093  )
       110           C   tau( 110) = (   0.3739892   0.2303780   0.3718846  )
       111           C   tau( 111) = (   0.2980500   0.2850331   0.3722893  )
       112           C   tau( 112) = (   0.4508275   0.2893233   0.3709147  )
       113           C   tau( 113) = (   0.3661957   0.1387059   0.3723962  )
       114           C   tau( 114) = (   0.2137043   0.2481495   0.3733761  )
       115           C   tau( 115) = (   0.6927144   0.4358726   0.3705821  )
       116           C   tau( 116) = (   0.6975572   0.2832570   0.3706871  )
       117           C   tau( 117) = (   0.7520148   0.3593420   0.3708172  )
       118           C   tau( 118) = (   0.6058696   0.3147741   0.3703014  )
       119           C   tau( 119) = (   0.7345942   0.1990239   0.3708859  )
       120           C   tau( 120) = (   0.8437377   0.3520296   0.3711039  )
       121           C   tau( 121) = (   0.1178093   0.7009380   0.3706798  )
       122           C   tau( 122) = (   0.1716191   0.7764158   0.3705069  )
       123           C   tau( 123) = (   0.2816386   0.1022965   0.3731327  )
       124           C   tau( 124) = (   0.2063654   0.1563446   0.3736868  )
       125           C   tau( 125) = (   0.8802783   0.2675079   0.3708583  )
       126           C   tau( 126) = (   0.8264568   0.1920502   0.3707354  )
       127           C   tau( 127) = (   0.7172083   0.8654454   0.3733865  )
       128           C   tau( 128) = (   0.7923387   0.8111973   0.3738525  )
       129           Zn  tau( 129) = (   0.4978582   0.4840343   0.3690981  )
       130           N   tau( 130) = (   0.3907500   0.5628697   0.3703748  )
       131           N   tau( 131) = (   0.4636147   0.7045771   0.3704782  )
       132           N   tau( 132) = (   0.2796115   0.4483832   0.3710388  )
       133           N   tau( 133) = (   0.5774946   0.5929717   0.3705757  )
       134           N   tau( 134) = (   0.7188657   0.5196065   0.3709902  )
       135           N   tau( 135) = (   0.4205886   0.3747633   0.3707273  )
       136           N   tau( 136) = (   0.5346384   0.2635512   0.3704356  )
       137           N   tau( 137) = (   0.6071592   0.4055398   0.3702218  )
       138           H   tau( 138) = (   0.1544830   0.2915866   0.3741109  )
       139           H   tau( 139) = (   0.4263714   0.0965917   0.3723921  )
       140           H   tau( 140) = (   0.6914855   0.1395635   0.3710825  )
       141           H   tau( 141) = (   0.8855922   0.4124219   0.3713639  )
       142           H   tau( 142) = (   0.8437165   0.6757371   0.3740265  )
       143           H   tau( 143) = (   0.5724431   0.8715189   0.3725519  )
       144           H   tau( 144) = (   0.3066714   0.8287634   0.3709758  )
       145           H   tau( 145) = (   0.1124256   0.5562530   0.3713899  )
       146           H   tau( 146) = (   0.1398800   0.1251394   0.3744396  )
       147           H   tau( 147) = (   0.2737052   0.0292925   0.3732319  )
       148           H   tau( 148) = (   0.8576395   0.1255595   0.3703069  )
       149           H   tau( 149) = (   0.9532984   0.2597728   0.3706243  )
       150           H   tau( 150) = (   0.8588889   0.8422603   0.3745179  )
       151           H   tau( 151) = (   0.7253733   0.9384606   0.3734876  )
       152           H   tau( 152) = (   0.1403828   0.8428916   0.3699888  )
       153           H   tau( 153) = (   0.0447516   0.7086824   0.3704558  )

     number of k points=     5
                       cart. coord. in units 2pi/alat
        k(    1) = (   0.1666667   0.1443662  -0.3690000), wk =   0.4444444
        k(    2) = (   0.1666667  -0.4330986  -0.3690000), wk =   0.4444444
        k(    3) = (  -0.5000000   0.1443662  -0.3690000), wk =   0.4444444
        k(    4) = (  -0.5000000  -0.4330986  -0.3690000), wk =   0.2222222
        k(    5) = (  -0.1666667   0.1443662   0.3690000), wk =   0.4444444

     Dense  grid:  2131249 G-vectors     FFT dimensions: ( 144, 160, 192)

     Occupations read from input 

        2.0000   2.0000   2.0000   2.0000   2.0000   2.0000   2.0000   2.0000
        2.0000   2.0000   2.0000   2.0000   2.0000   2.0000   2.0000   2.0000
        2.0000   2.0000   2.0000   2.0000   2.0000   2.0000   2.0000   2.0000
        2.0000   2.0000   2.0000   2.0000   2.0000   2.0000   2.0000   2.0000
        2.0000   2.0000   2.0000   2.0000   2.0000   2.0000   2.0000   2.0000
        2.0000   2.0000   2.0000   2.0000   2.0000   2.0000   2.0000   2.0000
        2.0000   2.0000   2.0000   2.0000   2.0000   2.0000   2.0000   2.0000
        2.0000   2.0000   2.0000   2.0000   2.0000   2.0000   2.0000   2.0000
        2.0000   2.0000   2.0000   2.0000   2.0000   2.0000   2.0000   2.0000
        2.0000   2.0000   2.0000   2.0000   2.0000   2.0000   2.0000   2.0000
        2.0000   2.0000   2.0000   2.0000   2.0000   2.0000   2.0000   2.0000
        2.0000   2.0000   2.0000   2.0000   2.0000   2.0000   2.0000   2.0000
        2.0000   2.0000   2.0000   2.0000   2.0000   2.0000   2.0000   2.0000
        2.0000   2.0000   2.0000   2.0000   2.0000   2.0000   2.0000   2.0000
        2.0000   2.0000   2.0000   2.0000   2.0000   2.0000   2.0000   2.0000
        2.0000   2.0000   2.0000   2.0000   2.0000   2.0000   2.0000   2.0000
        2.0000   2.0000   2.0000   2.0000   2.0000   2.0000   2.0000   2.0000
        2.0000   2.0000   2.0000   2.0000   2.0000   2.0000   2.0000   2.0000
        2.0000   2.0000   2.0000   2.0000   2.0000   2.0000   2.0000   2.0000
        2.0000   2.0000   2.0000   2.0000   2.0000   2.0000   2.0000   2.0000
        2.0000   2.0000   2.0000   2.0000   2.0000   2.0000   2.0000   2.0000
        2.0000   2.0000   2.0000   2.0000   2.0000   2.0000   2.0000   2.0000
        2.0000   2.0000   2.0000   2.0000   2.0000   2.0000   2.0000   2.0000
        2.0000   2.0000   2.0000   2.0000   2.0000   2.0000   2.0000   2.0000
        2.0000   2.0000   2.0000   2.0000   2.0000   2.0000   2.0000   2.0000
        2.0000   2.0000   2.0000   2.0000   2.0000   2.0000   2.0000   2.0000
        2.0000   2.0000   2.0000   2.0000   2.0000   2.0000   2.0000   2.0000
        2.0000   2.0000   2.0000   2.0000   2.0000   2.0000   2.0000   2.0000
        2.0000   2.0000   2.0000   2.0000   2.0000   2.0000   2.0000   2.0000
        2.0000   2.0000   2.0000   2.0000   2.0000   2.0000   2.0000   2.0000
        2.0000   2.0000   2.0000   2.0000   2.0000   2.0000   2.0000   2.0000
        2.0000   2.0000   2.0000   2.0000   2.0000   2.0000   2.0000   2.0000
        2.0000   2.0000   2.0000   2.0000   2.0000   2.0000   2.0000   2.0000
        2.0000   2.0000   2.0000   2.0000   2.0000   2.0000   2.0000   2.0000
        2.0000   2.0000   2.0000   2.0000   2.0000   2.0000   2.0000   2.0000
        2.0000   2.0000   2.0000   2.0000   2.0000   2.0000   2.0000   1.0000
        2.0000   2.0000   0.0000   0.0000   0.0000   1.0000   0.0000   0.0000
        0.0000   0.0000   0.0000   0.0000   0.0000   0.0000   0.0000   0.0000
        0.0000   0.0000   0.0000   0.0000   0.0000   0.0000   0.0000   0.0000
        0.0000   0.0000   0.0000   0.0000   0.0000   0.0000   0.0000   0.0000

     Largest allocated arrays     est. size (Mb)     dimensions
        Kohn-Sham Wavefunctions        40.73 Mb     (    8342,  320)
        Atomic Hubbard wavefuncts      52.57 Mb     (    8342,  413)
        NL pseudopotentials            19.09 Mb     (    8342,  150)
        Each V/rho on FFT grid          2.11 Mb     (  138240)
        Each G-vector array             0.51 Mb     (   66604)
        G-vector shells                 0.25 Mb     (   32481)
     Largest temporary arrays     est. size (Mb)     dimensions
        Auxiliary wavefunctions       162.93 Mb     (    8342, 1280)
        Each subspace H/S matrix        1.56 Mb     (     320,  320)
        Each <psi_i|beta_j> matrix      0.73 Mb     (     150,  320)
        Arrays for rho mixing          16.88 Mb     (  138240,    8)

     Initial potential from superposition of free atoms
     Check: negative starting charge=   -0.410216

     starting charge  578.99444, renormalised to  580.00000

     negative rho (up, down):  4.109E-01 0.000E+00
     Number of +U iterations with fixed ns =  0
     Starting occupations:
 --- enter write_ns ---
 LDA+U parameters:
U( 1)     =  7.00000000
alpha( 1) =  0.00000000
U( 2)     =  5.50000000
alpha( 2) =  0.00000000
U( 3)     =  5.50000000
alpha( 3) =  0.00000000
atom    1   Tr[ns(na)] =   2.00000
    eigenvalues: 
  0.333  0.333  0.333
    eigenvectors:
  1.000  0.000  0.000
  0.000  1.000  0.000
  0.000  0.000  1.000
    occupations:
  0.333  0.000  0.000
  0.000  0.333  0.000
  0.000  0.000  0.333
atom    2   Tr[ns(na)] =   2.00000
    eigenvalues: 
  0.333  0.333  0.333
    eigenvectors:
  1.000  0.000  0.000
  0.000  1.000  0.000
  0.000  0.000  1.000
    occupations:
  0.333  0.000  0.000
  0.000  0.333  0.000
  0.000  0.000  0.333
atom    3   Tr[ns(na)] =   2.00000
    eigenvalues: 
  0.333  0.333  0.333
    eigenvectors:
  1.000  0.000  0.000
  0.000  1.000  0.000
  0.000  0.000  1.000
    occupations:
  0.333  0.000  0.000
  0.000  0.333  0.000
  0.000  0.000  0.333
atom    4   Tr[ns(na)] =   2.00000
    eigenvalues: 
  0.333  0.333  0.333
    eigenvectors:
  1.000  0.000  0.000
  0.000  1.000  0.000
  0.000  0.000  1.000
    occupations:
  0.333  0.000  0.000
  0.000  0.333  0.000
  0.000  0.000  0.333
atom    5   Tr[ns(na)] =   2.00000
    eigenvalues: 
  0.333  0.333  0.333
    eigenvectors:
  1.000  0.000  0.000
  0.000  1.000  0.000
  0.000  0.000  1.000
    occupations:
  0.333  0.000  0.000
  0.000  0.333  0.000
  0.000  0.000  0.333
atom    6   Tr[ns(na)] =   2.00000
    eigenvalues: 
  0.333  0.333  0.333
    eigenvectors:
  1.000  0.000  0.000
  0.000  1.000  0.000
  0.000  0.000  1.000
    occupations:
  0.333  0.000  0.000
  0.000  0.333  0.000
  0.000  0.000  0.333
atom    7   Tr[ns(na)] =   2.00000
    eigenvalues: 
  0.333  0.333  0.333
    eigenvectors:
  1.000  0.000  0.000
  0.000  1.000  0.000
  0.000  0.000  1.000
    occupations:
  0.333  0.000  0.000
  0.000  0.333  0.000
  0.000  0.000  0.333
atom    8   Tr[ns(na)] =   2.00000
    eigenvalues: 
  0.333  0.333  0.333
    eigenvectors:
  1.000  0.000  0.000
  0.000  1.000  0.000
  0.000  0.000  1.000
    occupations:
  0.333  0.000  0.000
  0.000  0.333  0.000
  0.000  0.000  0.333
atom    9   Tr[ns(na)] =   2.00000
    eigenvalues: 
  0.333  0.333  0.333
    eigenvectors:
  1.000  0.000  0.000
  0.000  1.000  0.000
  0.000  0.000  1.000
    occupations:
  0.333  0.000  0.000
  0.000  0.333  0.000
  0.000  0.000  0.333
atom   10   Tr[ns(na)] =   2.00000
    eigenvalues: 
  0.333  0.333  0.333
    eigenvectors:
  1.000  0.000  0.000
  0.000  1.000  0.000
  0.000  0.000  1.000
    occupations:
  0.333  0.000  0.000
  0.000  0.333  0.000
  0.000  0.000  0.333
atom   11   Tr[ns(na)] =   2.00000
    eigenvalues: 
  0.333  0.333  0.333
    eigenvectors:
  1.000  0.000  0.000
  0.000  1.000  0.000
  0.000  0.000  1.000
    occupations:
  0.333  0.000  0.000
  0.000  0.333  0.000
  0.000  0.000  0.333
atom   12   Tr[ns(na)] =   2.00000
    eigenvalues: 
  0.333  0.333  0.333
    eigenvectors:
  1.000  0.000  0.000
  0.000  1.000  0.000
  0.000  0.000  1.000
    occupations:
  0.333  0.000  0.000
  0.000  0.333  0.000
  0.000  0.000  0.333
atom   13   Tr[ns(na)] =   2.00000
    eigenvalues: 
  0.333  0.333  0.333
    eigenvectors:
  1.000  0.000  0.000
  0.000  1.000  0.000
  0.000  0.000  1.000
    occupations:
  0.333  0.000  0.000
  0.000  0.333  0.000
  0.000  0.000  0.333
atom   14   Tr[ns(na)] =   2.00000
    eigenvalues: 
  0.333  0.333  0.333
    eigenvectors:
  1.000  0.000  0.000
  0.000  1.000  0.000
  0.000  0.000  1.000
    occupations:
  0.333  0.000  0.000
  0.000  0.333  0.000
  0.000  0.000  0.333
atom   15   Tr[ns(na)] =   2.00000
    eigenvalues: 
  0.333  0.333  0.333
    eigenvectors:
  1.000  0.000  0.000
  0.000  1.000  0.000
  0.000  0.000  1.000
    occupations:
  0.333  0.000  0.000
  0.000  0.333  0.000
  0.000  0.000  0.333
atom   16   Tr[ns(na)] =   2.00000
    eigenvalues: 
  0.333  0.333  0.333
    eigenvectors:
  1.000  0.000  0.000
  0.000  1.000  0.000
  0.000  0.000  1.000
    occupations:
  0.333  0.000  0.000
  0.000  0.333  0.000
  0.000  0.000  0.333
atom   17   Tr[ns(na)] =   2.00000
    eigenvalues: 
  0.333  0.333  0.333
    eigenvectors:
  1.000  0.000  0.000
  0.000  1.000  0.000
  0.000  0.000  1.000
    occupations:
  0.333  0.000  0.000
  0.000  0.333  0.000
  0.000  0.000  0.333
atom   18   Tr[ns(na)] =   2.00000
    eigenvalues: 
  0.333  0.333  0.333
    eigenvectors:
  1.000  0.000  0.000
  0.000  1.000  0.000
  0.000  0.000  1.000
    occupations:
  0.333  0.000  0.000
  0.000  0.333  0.000
  0.000  0.000  0.333
atom   19   Tr[ns(na)] =   2.00000
    eigenvalues: 
  0.333  0.333  0.333
    eigenvectors:
  1.000  0.000  0.000
  0.000  1.000  0.000
  0.000  0.000  1.000
    occupations:
  0.333  0.000  0.000
  0.000  0.333  0.000
  0.000  0.000  0.333
atom   20   Tr[ns(na)] =   2.00000
    eigenvalues: 
  0.333  0.333  0.333
    eigenvectors:
  1.000  0.000  0.000
  0.000  1.000  0.000
  0.000  0.000  1.000
    occupations:
  0.333  0.000  0.000
  0.000  0.333  0.000
  0.000  0.000  0.333
atom   21   Tr[ns(na)] =   2.00000
    eigenvalues: 
  0.333  0.333  0.333
    eigenvectors:
  1.000  0.000  0.000
  0.000  1.000  0.000
  0.000  0.000  1.000
    occupations:
  0.333  0.000  0.000
  0.000  0.333  0.000
  0.000  0.000  0.333
atom   22   Tr[ns(na)] =   2.00000
    eigenvalues: 
  0.333  0.333  0.333
    eigenvectors:
  1.000  0.000  0.000
  0.000  1.000  0.000
  0.000  0.000  1.000
    occupations:
  0.333  0.000  0.000
  0.000  0.333  0.000
  0.000  0.000  0.333
atom   23   Tr[ns(na)] =   2.00000
    eigenvalues: 
  0.333  0.333  0.333
    eigenvectors:
  1.000  0.000  0.000
  0.000  1.000  0.000
  0.000  0.000  1.000
    occupations:
  0.333  0.000  0.000
  0.000  0.333  0.000
  0.000  0.000  0.333
atom   24   Tr[ns(na)] =   2.00000
    eigenvalues: 
  0.333  0.333  0.333
    eigenvectors:
  1.000  0.000  0.000
  0.000  1.000  0.000
  0.000  0.000  1.000
    occupations:
  0.333  0.000  0.000
  0.000  0.333  0.000
  0.000  0.000  0.333
atom   25   Tr[ns(na)] =   2.00000
    eigenvalues: 
  0.333  0.333  0.333
    eigenvectors:
  1.000  0.000  0.000
  0.000  1.000  0.000
  0.000  0.000  1.000
    occupations:
  0.333  0.000  0.000
  0.000  0.333  0.000
  0.000  0.000  0.333
atom   26   Tr[ns(na)] =   2.00000
    eigenvalues: 
  0.333  0.333  0.333
    eigenvectors:
  1.000  0.000  0.000
  0.000  1.000  0.000
  0.000  0.000  1.000
    occupations:
  0.333  0.000  0.000
  0.000  0.333  0.000
  0.000  0.000  0.333
atom   27   Tr[ns(na)] =   2.00000
    eigenvalues: 
  0.333  0.333  0.333
    eigenvectors:
  1.000  0.000  0.000
  0.000  1.000  0.000
  0.000  0.000  1.000
    occupations:
  0.333  0.000  0.000
  0.000  0.333  0.000
  0.000  0.000  0.333
atom   28   Tr[ns(na)] =   2.00000
    eigenvalues: 
  0.333  0.333  0.333
    eigenvectors:
  1.000  0.000  0.000
  0.000  1.000  0.000
  0.000  0.000  1.000
    occupations:
  0.333  0.000  0.000
  0.000  0.333  0.000
  0.000  0.000  0.333
atom   29   Tr[ns(na)] =   2.00000
    eigenvalues: 
  0.333  0.333  0.333
    eigenvectors:
  1.000  0.000  0.000
  0.000  1.000  0.000
  0.000  0.000  1.000
    occupations:
  0.333  0.000  0.000
  0.000  0.333  0.000
  0.000  0.000  0.333
atom   30   Tr[ns(na)] =   2.00000
    eigenvalues: 
  0.333  0.333  0.333
    eigenvectors:
  1.000  0.000  0.000
  0.000  1.000  0.000
  0.000  0.000  1.000
    occupations:
  0.333  0.000  0.000
  0.000  0.333  0.000
  0.000  0.000  0.333
atom   31   Tr[ns(na)] =   2.00000
    eigenvalues: 
  0.333  0.333  0.333
    eigenvectors:
  1.000  0.000  0.000
  0.000  1.000  0.000
  0.000  0.000  1.000
    occupations:
  0.333  0.000  0.000
  0.000  0.333  0.000
  0.000  0.000  0.333
atom   32   Tr[ns(na)] =   2.00000
    eigenvalues: 
  0.333  0.333  0.333
    eigenvectors:
  1.000  0.000  0.000
  0.000  1.000  0.000
  0.000  0.000  1.000
    occupations:
  0.333  0.000  0.000
  0.000  0.333  0.000
  0.000  0.000  0.333
atom   33   Tr[ns(na)] =   2.00000
    eigenvalues: 
  0.333  0.333  0.333
    eigenvectors:
  1.000  0.000  0.000
  0.000  1.000  0.000
  0.000  0.000  1.000
    occupations:
  0.333  0.000  0.000
  0.000  0.333  0.000
  0.000  0.000  0.333
atom   34   Tr[ns(na)] =   2.00000
    eigenvalues: 
  0.333  0.333  0.333
    eigenvectors:
  1.000  0.000  0.000
  0.000  1.000  0.000
  0.000  0.000  1.000
    occupations:
  0.333  0.000  0.000
  0.000  0.333  0.000
  0.000  0.000  0.333
atom   35   Tr[ns(na)] =   2.00000
    eigenvalues: 
  0.333  0.333  0.333
    eigenvectors:
  1.000  0.000  0.000
  0.000  1.000  0.000
  0.000  0.000  1.000
    occupations:
  0.333  0.000  0.000
  0.000  0.333  0.000
  0.000  0.000  0.333
atom   36   Tr[ns(na)] =   2.00000
    eigenvalues: 
  0.333  0.333  0.333
    eigenvectors:
  1.000  0.000  0.000
  0.000  1.000  0.000
  0.000  0.000  1.000
    occupations:
  0.333  0.000  0.000
  0.000  0.333  0.000
  0.000  0.000  0.333
atom   37   Tr[ns(na)] =   2.00000
    eigenvalues: 
  0.333  0.333  0.333
    eigenvectors:
  1.000  0.000  0.000
  0.000  1.000  0.000
  0.000  0.000  1.000
    occupations:
  0.333  0.000  0.000
  0.000  0.333  0.000
  0.000  0.000  0.333
atom   38   Tr[ns(na)] =   2.00000
    eigenvalues: 
  0.333  0.333  0.333
    eigenvectors:
  1.000  0.000  0.000
  0.000  1.000  0.000
  0.000  0.000  1.000
    occupations:
  0.333  0.000  0.000
  0.000  0.333  0.000
  0.000  0.000  0.333
atom   39   Tr[ns(na)] =   2.00000
    eigenvalues: 
  0.333  0.333  0.333
    eigenvectors:
  1.000  0.000  0.000
  0.000  1.000  0.000
  0.000  0.000  1.000
    occupations:
  0.333  0.000  0.000
  0.000  0.333  0.000
  0.000  0.000  0.333
atom   40   Tr[ns(na)] =   2.00000
    eigenvalues: 
  0.333  0.333  0.333
    eigenvectors:
  1.000  0.000  0.000
  0.000  1.000  0.000
  0.000  0.000  1.000
    occupations:
  0.333  0.000  0.000
  0.000  0.333  0.000
  0.000  0.000  0.333
atom   41   Tr[ns(na)] =   2.00000
    eigenvalues: 
  0.333  0.333  0.333
    eigenvectors:
  1.000  0.000  0.000
  0.000  1.000  0.000
  0.000  0.000  1.000
    occupations:
  0.333  0.000  0.000
  0.000  0.333  0.000
  0.000  0.000  0.333
atom   42   Tr[ns(na)] =   2.00000
    eigenvalues: 
  0.333  0.333  0.333
    eigenvectors:
  1.000  0.000  0.000
  0.000  1.000  0.000
  0.000  0.000  1.000
    occupations:
  0.333  0.000  0.000
  0.000  0.333  0.000
  0.000  0.000  0.333
atom   43   Tr[ns(na)] =   2.00000
    eigenvalues: 
  0.333  0.333  0.333
    eigenvectors:
  1.000  0.000  0.000
  0.000  1.000  0.000
  0.000  0.000  1.000
    occupations:
  0.333  0.000  0.000
  0.000  0.333  0.000
  0.000  0.000  0.333
atom   44   Tr[ns(na)] =   2.00000
    eigenvalues: 
  0.333  0.333  0.333
    eigenvectors:
  1.000  0.000  0.000
  0.000  1.000  0.000
  0.000  0.000  1.000
    occupations:
  0.333  0.000  0.000
  0.000  0.333  0.000
  0.000  0.000  0.333
atom   45   Tr[ns(na)] =   2.00000
    eigenvalues: 
  0.333  0.333  0.333
    eigenvectors:
  1.000  0.000  0.000
  0.000  1.000  0.000
  0.000  0.000  1.000
    occupations:
  0.333  0.000  0.000
  0.000  0.333  0.000
  0.000  0.000  0.333
atom   46   Tr[ns(na)] =   2.00000
    eigenvalues: 
  0.333  0.333  0.333
    eigenvectors:
  1.000  0.000  0.000
  0.000  1.000  0.000
  0.000  0.000  1.000
    occupations:
  0.333  0.000  0.000
  0.000  0.333  0.000
  0.000  0.000  0.333
atom   47   Tr[ns(na)] =   2.00000
    eigenvalues: 
  0.333  0.333  0.333
    eigenvectors:
  1.000  0.000  0.000
  0.000  1.000  0.000
  0.000  0.000  1.000
    occupations:
  0.333  0.000  0.000
  0.000  0.333  0.000
  0.000  0.000  0.333
atom   48   Tr[ns(na)] =   2.00000
    eigenvalues: 
  0.333  0.333  0.333
    eigenvectors:
  1.000  0.000  0.000
  0.000  1.000  0.000
  0.000  0.000  1.000
    occupations:
  0.333  0.000  0.000
  0.000  0.333  0.000
  0.000  0.000  0.333
atom   49   Tr[ns(na)] =   2.00000
    eigenvalues: 
  0.333  0.333  0.333
    eigenvectors:
  1.000  0.000  0.000
  0.000  1.000  0.000
  0.000  0.000  1.000
    occupations:
  0.333  0.000  0.000
  0.000  0.333  0.000
  0.000  0.000  0.333
atom   50   Tr[ns(na)] =   2.00000
    eigenvalues: 
  0.333  0.333  0.333
    eigenvectors:
  1.000  0.000  0.000
  0.000  1.000  0.000
  0.000  0.000  1.000
    occupations:
  0.333  0.000  0.000
  0.000  0.333  0.000
  0.000  0.000  0.333
atom   51   Tr[ns(na)] =   2.00000
    eigenvalues: 
  0.333  0.333  0.333
    eigenvectors:
  1.000  0.000  0.000
  0.000  1.000  0.000
  0.000  0.000  1.000
    occupations:
  0.333  0.000  0.000
  0.000  0.333  0.000
  0.000  0.000  0.333
atom   52   Tr[ns(na)] =   2.00000
    eigenvalues: 
  0.333  0.333  0.333
    eigenvectors:
  1.000  0.000  0.000
  0.000  1.000  0.000
  0.000  0.000  1.000
    occupations:
  0.333  0.000  0.000
  0.000  0.333  0.000
  0.000  0.000  0.333
atom   53   Tr[ns(na)] =   2.00000
    eigenvalues: 
  0.333  0.333  0.333
    eigenvectors:
  1.000  0.000  0.000
  0.000  1.000  0.000
  0.000  0.000  1.000
    occupations:
  0.333  0.000  0.000
  0.000  0.333  0.000
  0.000  0.000  0.333
atom   54   Tr[ns(na)] =   2.00000
    eigenvalues: 
  0.333  0.333  0.333
    eigenvectors:
  1.000  0.000  0.000
  0.000  1.000  0.000
  0.000  0.000  1.000
    occupations:
  0.333  0.000  0.000
  0.000  0.333  0.000
  0.000  0.000  0.333
atom   55   Tr[ns(na)] =   2.00000
    eigenvalues: 
  0.333  0.333  0.333
    eigenvectors:
  1.000  0.000  0.000
  0.000  1.000  0.000
  0.000  0.000  1.000
    occupations:
  0.333  0.000  0.000
  0.000  0.333  0.000
  0.000  0.000  0.333
atom   56   Tr[ns(na)] =   2.00000
    eigenvalues: 
  0.333  0.333  0.333
    eigenvectors:
  1.000  0.000  0.000
  0.000  1.000  0.000
  0.000  0.000  1.000
    occupations:
  0.333  0.000  0.000
  0.000  0.333  0.000
  0.000  0.000  0.333
atom   57   Tr[ns(na)] =   2.00000
    eigenvalues: 
  0.333  0.333  0.333
    eigenvectors:
  1.000  0.000  0.000
  0.000  1.000  0.000
  0.000  0.000  1.000
    occupations:
  0.333  0.000  0.000
  0.000  0.333  0.000
  0.000  0.000  0.333
atom   58   Tr[ns(na)] =   2.00000
    eigenvalues: 
  0.333  0.333  0.333
    eigenvectors:
  1.000  0.000  0.000
  0.000  1.000  0.000
  0.000  0.000  1.000
    occupations:
  0.333  0.000  0.000
  0.000  0.333  0.000
  0.000  0.000  0.333
atom   59   Tr[ns(na)] =   2.00000
    eigenvalues: 
  0.333  0.333  0.333
    eigenvectors:
  1.000  0.000  0.000
  0.000  1.000  0.000
  0.000  0.000  1.000
    occupations:
  0.333  0.000  0.000
  0.000  0.333  0.000
  0.000  0.000  0.333
atom   60   Tr[ns(na)] =   2.00000
    eigenvalues: 
  0.333  0.333  0.333
    eigenvectors:
  1.000  0.000  0.000
  0.000  1.000  0.000
  0.000  0.000  1.000
    occupations:
  0.333  0.000  0.000
  0.000  0.333  0.000
  0.000  0.000  0.333
atom   61   Tr[ns(na)] =   2.00000
    eigenvalues: 
  0.333  0.333  0.333
    eigenvectors:
  1.000  0.000  0.000
  0.000  1.000  0.000
  0.000  0.000  1.000
    occupations:
  0.333  0.000  0.000
  0.000  0.333  0.000
  0.000  0.000  0.333
atom   62   Tr[ns(na)] =   2.00000
    eigenvalues: 
  0.333  0.333  0.333
    eigenvectors:
  1.000  0.000  0.000
  0.000  1.000  0.000
  0.000  0.000  1.000
    occupations:
  0.333  0.000  0.000
  0.000  0.333  0.000
  0.000  0.000  0.333
atom   63   Tr[ns(na)] =   2.00000
    eigenvalues: 
  0.333  0.333  0.333
    eigenvectors:
  1.000  0.000  0.000
  0.000  1.000  0.000
  0.000  0.000  1.000
    occupations:
  0.333  0.000  0.000
  0.000  0.333  0.000
  0.000  0.000  0.333
atom   64   Tr[ns(na)] =   2.00000
    eigenvalues: 
  0.333  0.333  0.333
    eigenvectors:
  1.000  0.000  0.000
  0.000  1.000  0.000
  0.000  0.000  1.000
    occupations:
  0.333  0.000  0.000
  0.000  0.333  0.000
  0.000  0.000  0.333
atom   65   Tr[ns(na)] =   2.00000
    eigenvalues: 
  0.333  0.333  0.333
    eigenvectors:
  1.000  0.000  0.000
  0.000  1.000  0.000
  0.000  0.000  1.000
    occupations:
  0.333  0.000  0.000
  0.000  0.333  0.000
  0.000  0.000  0.333
atom   66   Tr[ns(na)] =   2.00000
    eigenvalues: 
  0.333  0.333  0.333
    eigenvectors:
  1.000  0.000  0.000
  0.000  1.000  0.000
  0.000  0.000  1.000
    occupations:
  0.333  0.000  0.000
  0.000  0.333  0.000
  0.000  0.000  0.333
atom   67   Tr[ns(na)] =   2.00000
    eigenvalues: 
  0.333  0.333  0.333
    eigenvectors:
  1.000  0.000  0.000
  0.000  1.000  0.000
  0.000  0.000  1.000
    occupations:
  0.333  0.000  0.000
  0.000  0.333  0.000
  0.000  0.000  0.333
atom   68   Tr[ns(na)] =   2.00000
    eigenvalues: 
  0.333  0.333  0.333
    eigenvectors:
  1.000  0.000  0.000
  0.000  1.000  0.000
  0.000  0.000  1.000
    occupations:
  0.333  0.000  0.000
  0.000  0.333  0.000
  0.000  0.000  0.333
atom   69   Tr[ns(na)] =   2.00000
    eigenvalues: 
  0.333  0.333  0.333
    eigenvectors:
  1.000  0.000  0.000
  0.000  1.000  0.000
  0.000  0.000  1.000
    occupations:
  0.333  0.000  0.000
  0.000  0.333  0.000
  0.000  0.000  0.333
atom   70   Tr[ns(na)] =   2.00000
    eigenvalues: 
  0.333  0.333  0.333
    eigenvectors:
  1.000  0.000  0.000
  0.000  1.000  0.000
  0.000  0.000  1.000
    occupations:
  0.333  0.000  0.000
  0.000  0.333  0.000
  0.000  0.000  0.333
atom   71   Tr[ns(na)] =   2.00000
    eigenvalues: 
  0.333  0.333  0.333
    eigenvectors:
  1.000  0.000  0.000
  0.000  1.000  0.000
  0.000  0.000  1.000
    occupations:
  0.333  0.000  0.000
  0.000  0.333  0.000
  0.000  0.000  0.333
atom   72   Tr[ns(na)] =   2.00000
    eigenvalues: 
  0.333  0.333  0.333
    eigenvectors:
  1.000  0.000  0.000
  0.000  1.000  0.000
  0.000  0.000  1.000
    occupations:
  0.333  0.000  0.000
  0.000  0.333  0.000
  0.000  0.000  0.333
atom   73   Tr[ns(na)] =   2.00000
    eigenvalues: 
  0.333  0.333  0.333
    eigenvectors:
  1.000  0.000  0.000
  0.000  1.000  0.000
  0.000  0.000  1.000
    occupations:
  0.333  0.000  0.000
  0.000  0.333  0.000
  0.000  0.000  0.333
atom   74   Tr[ns(na)] =   2.00000
    eigenvalues: 
  0.333  0.333  0.333
    eigenvectors:
  1.000  0.000  0.000
  0.000  1.000  0.000
  0.000  0.000  1.000
    occupations:
  0.333  0.000  0.000
  0.000  0.333  0.000
  0.000  0.000  0.333
atom   75   Tr[ns(na)] =   2.00000
    eigenvalues: 
  0.333  0.333  0.333
    eigenvectors:
  1.000  0.000  0.000
  0.000  1.000  0.000
  0.000  0.000  1.000
    occupations:
  0.333  0.000  0.000
  0.000  0.333  0.000
  0.000  0.000  0.333
atom   76   Tr[ns(na)] =   2.00000
    eigenvalues: 
  0.333  0.333  0.333
    eigenvectors:
  1.000  0.000  0.000
  0.000  1.000  0.000
  0.000  0.000  1.000
    occupations:
  0.333  0.000  0.000
  0.000  0.333  0.000
  0.000  0.000  0.333
atom   77   Tr[ns(na)] =   2.00000
    eigenvalues: 
  0.333  0.333  0.333
    eigenvectors:
  1.000  0.000  0.000
  0.000  1.000  0.000
  0.000  0.000  1.000
    occupations:
  0.333  0.000  0.000
  0.000  0.333  0.000
  0.000  0.000  0.333
atom   78   Tr[ns(na)] =   2.00000
    eigenvalues: 
  0.333  0.333  0.333
    eigenvectors:
  1.000  0.000  0.000
  0.000  1.000  0.000
  0.000  0.000  1.000
    occupations:
  0.333  0.000  0.000
  0.000  0.333  0.000
  0.000  0.000  0.333
atom   79   Tr[ns(na)] =   2.00000
    eigenvalues: 
  0.333  0.333  0.333
    eigenvectors:
  1.000  0.000  0.000
  0.000  1.000  0.000
  0.000  0.000  1.000
    occupations:
  0.333  0.000  0.000
  0.000  0.333  0.000
  0.000  0.000  0.333
atom   80   Tr[ns(na)] =   2.00000
    eigenvalues: 
  0.333  0.333  0.333
    eigenvectors:
  1.000  0.000  0.000
  0.000  1.000  0.000
  0.000  0.000  1.000
    occupations:
  0.333  0.000  0.000
  0.000  0.333  0.000
  0.000  0.000  0.333
atom   81   Tr[ns(na)] =   2.00000
    eigenvalues: 
  0.333  0.333  0.333
    eigenvectors:
  1.000  0.000  0.000
  0.000  1.000  0.000
  0.000  0.000  1.000
    occupations:
  0.333  0.000  0.000
  0.000  0.333  0.000
  0.000  0.000  0.333
atom   82   Tr[ns(na)] =   2.00000
    eigenvalues: 
  0.333  0.333  0.333
    eigenvectors:
  1.000  0.000  0.000
  0.000  1.000  0.000
  0.000  0.000  1.000
    occupations:
  0.333  0.000  0.000
  0.000  0.333  0.000
  0.000  0.000  0.333
atom   83   Tr[ns(na)] =   2.00000
    eigenvalues: 
  0.333  0.333  0.333
    eigenvectors:
  1.000  0.000  0.000
  0.000  1.000  0.000
  0.000  0.000  1.000
    occupations:
  0.333  0.000  0.000
  0.000  0.333  0.000
  0.000  0.000  0.333
atom   84   Tr[ns(na)] =   2.00000
    eigenvalues: 
  0.333  0.333  0.333
    eigenvectors:
  1.000  0.000  0.000
  0.000  1.000  0.000
  0.000  0.000  1.000
    occupations:
  0.333  0.000  0.000
  0.000  0.333  0.000
  0.000  0.000  0.333
atom   85   Tr[ns(na)] =   2.00000
    eigenvalues: 
  0.333  0.333  0.333
    eigenvectors:
  1.000  0.000  0.000
  0.000  1.000  0.000
  0.000  0.000  1.000
    occupations:
  0.333  0.000  0.000
  0.000  0.333  0.000
  0.000  0.000  0.333
atom   86   Tr[ns(na)] =   2.00000
    eigenvalues: 
  0.333  0.333  0.333
    eigenvectors:
  1.000  0.000  0.000
  0.000  1.000  0.000
  0.000  0.000  1.000
    occupations:
  0.333  0.000  0.000
  0.000  0.333  0.000
  0.000  0.000  0.333
atom   87   Tr[ns(na)] =   2.00000
    eigenvalues: 
  0.333  0.333  0.333
    eigenvectors:
  1.000  0.000  0.000
  0.000  1.000  0.000
  0.000  0.000  1.000
    occupations:
  0.333  0.000  0.000
  0.000  0.333  0.000
  0.000  0.000  0.333
atom   88   Tr[ns(na)] =   2.00000
    eigenvalues: 
  0.333  0.333  0.333
    eigenvectors:
  1.000  0.000  0.000
  0.000  1.000  0.000
  0.000  0.000  1.000
    occupations:
  0.333  0.000  0.000
  0.000  0.333  0.000
  0.000  0.000  0.333
atom   89   Tr[ns(na)] =   2.00000
    eigenvalues: 
  0.333  0.333  0.333
    eigenvectors:
  1.000  0.000  0.000
  0.000  1.000  0.000
  0.000  0.000  1.000
    occupations:
  0.333  0.000  0.000
  0.000  0.333  0.000
  0.000  0.000  0.333
atom   90   Tr[ns(na)] =   2.00000
    eigenvalues: 
  0.333  0.333  0.333
    eigenvectors:
  1.000  0.000  0.000
  0.000  1.000  0.000
  0.000  0.000  1.000
    occupations:
  0.333  0.000  0.000
  0.000  0.333  0.000
  0.000  0.000  0.333
atom   91   Tr[ns(na)] =   2.00000
    eigenvalues: 
  0.333  0.333  0.333
    eigenvectors:
  1.000  0.000  0.000
  0.000  1.000  0.000
  0.000  0.000  1.000
    occupations:
  0.333  0.000  0.000
  0.000  0.333  0.000
  0.000  0.000  0.333
atom   92   Tr[ns(na)] =   2.00000
    eigenvalues: 
  0.333  0.333  0.333
    eigenvectors:
  1.000  0.000  0.000
  0.000  1.000  0.000
  0.000  0.000  1.000
    occupations:
  0.333  0.000  0.000
  0.000  0.333  0.000
  0.000  0.000  0.333
atom   93   Tr[ns(na)] =   2.00000
    eigenvalues: 
  0.333  0.333  0.333
    eigenvectors:
  1.000  0.000  0.000
  0.000  1.000  0.000
  0.000  0.000  1.000
    occupations:
  0.333  0.000  0.000
  0.000  0.333  0.000
  0.000  0.000  0.333
atom   94   Tr[ns(na)] =   2.00000
    eigenvalues: 
  0.333  0.333  0.333
    eigenvectors:
  1.000  0.000  0.000
  0.000  1.000  0.000
  0.000  0.000  1.000
    occupations:
  0.333  0.000  0.000
  0.000  0.333  0.000
  0.000  0.000  0.333
atom   95   Tr[ns(na)] =   2.00000
    eigenvalues: 
  0.333  0.333  0.333
    eigenvectors:
  1.000  0.000  0.000
  0.000  1.000  0.000
  0.000  0.000  1.000
    occupations:
  0.333  0.000  0.000
  0.000  0.333  0.000
  0.000  0.000  0.333
atom   96   Tr[ns(na)] =   2.00000
    eigenvalues: 
  0.333  0.333  0.333
    eigenvectors:
  1.000  0.000  0.000
  0.000  1.000  0.000
  0.000  0.000  1.000
    occupations:
  0.333  0.000  0.000
  0.000  0.333  0.000
  0.000  0.000  0.333
atom   97   Tr[ns(na)] =   2.00000
    eigenvalues: 
  0.333  0.333  0.333
    eigenvectors:
  1.000  0.000  0.000
  0.000  1.000  0.000
  0.000  0.000  1.000
    occupations:
  0.333  0.000  0.000
  0.000  0.333  0.000
  0.000  0.000  0.333
atom   98   Tr[ns(na)] =   2.00000
    eigenvalues: 
  0.333  0.333  0.333
    eigenvectors:
  1.000  0.000  0.000
  0.000  1.000  0.000
  0.000  0.000  1.000
    occupations:
  0.333  0.000  0.000
  0.000  0.333  0.000
  0.000  0.000  0.333
atom   99   Tr[ns(na)] =   2.00000
    eigenvalues: 
  0.333  0.333  0.333
    eigenvectors:
  1.000  0.000  0.000
  0.000  1.000  0.000
  0.000  0.000  1.000
    occupations:
  0.333  0.000  0.000
  0.000  0.333  0.000
  0.000  0.000  0.333
atom  100   Tr[ns(na)] =   2.00000
    eigenvalues: 
  0.333  0.333  0.333
    eigenvectors:
  1.000  0.000  0.000
  0.000  1.000  0.000
  0.000  0.000  1.000
    occupations:
  0.333  0.000  0.000
  0.000  0.333  0.000
  0.000  0.000  0.333
atom  101   Tr[ns(na)] =   2.00000
    eigenvalues: 
  0.333  0.333  0.333
    eigenvectors:
  1.000  0.000  0.000
  0.000  1.000  0.000
  0.000  0.000  1.000
    occupations:
  0.333  0.000  0.000
  0.000  0.333  0.000
  0.000  0.000  0.333
atom  102   Tr[ns(na)] =   2.00000
    eigenvalues: 
  0.333  0.333  0.333
    eigenvectors:
  1.000  0.000  0.000
  0.000  1.000  0.000
  0.000  0.000  1.000
    occupations:
  0.333  0.000  0.000
  0.000  0.333  0.000
  0.000  0.000  0.333
atom  103   Tr[ns(na)] =   2.00000
    eigenvalues: 
  0.333  0.333  0.333
    eigenvectors:
  1.000  0.000  0.000
  0.000  1.000  0.000
  0.000  0.000  1.000
    occupations:
  0.333  0.000  0.000
  0.000  0.333  0.000
  0.000  0.000  0.333
atom  104   Tr[ns(na)] =   2.00000
    eigenvalues: 
  0.333  0.333  0.333
    eigenvectors:
  1.000  0.000  0.000
  0.000  1.000  0.000
  0.000  0.000  1.000
    occupations:
  0.333  0.000  0.000
  0.000  0.333  0.000
  0.000  0.000  0.333
atom  105   Tr[ns(na)] =   2.00000
    eigenvalues: 
  0.333  0.333  0.333
    eigenvectors:
  1.000  0.000  0.000
  0.000  1.000  0.000
  0.000  0.000  1.000
    occupations:
  0.333  0.000  0.000
  0.000  0.333  0.000
  0.000  0.000  0.333
atom  106   Tr[ns(na)] =   2.00000
    eigenvalues: 
  0.333  0.333  0.333
    eigenvectors:
  1.000  0.000  0.000
  0.000  1.000  0.000
  0.000  0.000  1.000
    occupations:
  0.333  0.000  0.000
  0.000  0.333  0.000
  0.000  0.000  0.333
atom  107   Tr[ns(na)] =   2.00000
    eigenvalues: 
  0.333  0.333  0.333
    eigenvectors:
  1.000  0.000  0.000
  0.000  1.000  0.000
  0.000  0.000  1.000
    occupations:
  0.333  0.000  0.000
  0.000  0.333  0.000
  0.000  0.000  0.333
atom  108   Tr[ns(na)] =   2.00000
    eigenvalues: 
  0.333  0.333  0.333
    eigenvectors:
  1.000  0.000  0.000
  0.000  1.000  0.000
  0.000  0.000  1.000
    occupations:
  0.333  0.000  0.000
  0.000  0.333  0.000
  0.000  0.000  0.333
atom  109   Tr[ns(na)] =   2.00000
    eigenvalues: 
  0.333  0.333  0.333
    eigenvectors:
  1.000  0.000  0.000
  0.000  1.000  0.000
  0.000  0.000  1.000
    occupations:
  0.333  0.000  0.000
  0.000  0.333  0.000
  0.000  0.000  0.333
atom  110   Tr[ns(na)] =   2.00000
    eigenvalues: 
  0.333  0.333  0.333
    eigenvectors:
  1.000  0.000  0.000
  0.000  1.000  0.000
  0.000  0.000  1.000
    occupations:
  0.333  0.000  0.000
  0.000  0.333  0.000
  0.000  0.000  0.333
atom  111   Tr[ns(na)] =   2.00000
    eigenvalues: 
  0.333  0.333  0.333
    eigenvectors:
  1.000  0.000  0.000
  0.000  1.000  0.000
  0.000  0.000  1.000
    occupations:
  0.333  0.000  0.000
  0.000  0.333  0.000
  0.000  0.000  0.333
atom  112   Tr[ns(na)] =   2.00000
    eigenvalues: 
  0.333  0.333  0.333
    eigenvectors:
  1.000  0.000  0.000
  0.000  1.000  0.000
  0.000  0.000  1.000
    occupations:
  0.333  0.000  0.000
  0.000  0.333  0.000
  0.000  0.000  0.333
atom  113   Tr[ns(na)] =   2.00000
    eigenvalues: 
  0.333  0.333  0.333
    eigenvectors:
  1.000  0.000  0.000
  0.000  1.000  0.000
  0.000  0.000  1.000
    occupations:
  0.333  0.000  0.000
  0.000  0.333  0.000
  0.000  0.000  0.333
atom  114   Tr[ns(na)] =   2.00000
    eigenvalues: 
  0.333  0.333  0.333
    eigenvectors:
  1.000  0.000  0.000
  0.000  1.000  0.000
  0.000  0.000  1.000
    occupations:
  0.333  0.000  0.000
  0.000  0.333  0.000
  0.000  0.000  0.333
atom  115   Tr[ns(na)] =   2.00000
    eigenvalues: 
  0.333  0.333  0.333
    eigenvectors:
  1.000  0.000  0.000
  0.000  1.000  0.000
  0.000  0.000  1.000
    occupations:
  0.333  0.000  0.000
  0.000  0.333  0.000
  0.000  0.000  0.333
atom  116   Tr[ns(na)] =   2.00000
    eigenvalues: 
  0.333  0.333  0.333
    eigenvectors:
  1.000  0.000  0.000
  0.000  1.000  0.000
  0.000  0.000  1.000
    occupations:
  0.333  0.000  0.000
  0.000  0.333  0.000
  0.000  0.000  0.333
atom  117   Tr[ns(na)] =   2.00000
    eigenvalues: 
  0.333  0.333  0.333
    eigenvectors:
  1.000  0.000  0.000
  0.000  1.000  0.000
  0.000  0.000  1.000
    occupations:
  0.333  0.000  0.000
  0.000  0.333  0.000
  0.000  0.000  0.333
atom  118   Tr[ns(na)] =   2.00000
    eigenvalues: 
  0.333  0.333  0.333
    eigenvectors:
  1.000  0.000  0.000
  0.000  1.000  0.000
  0.000  0.000  1.000
    occupations:
  0.333  0.000  0.000
  0.000  0.333  0.000
  0.000  0.000  0.333
atom  119   Tr[ns(na)] =   2.00000
    eigenvalues: 
  0.333  0.333  0.333
    eigenvectors:
  1.000  0.000  0.000
  0.000  1.000  0.000
  0.000  0.000  1.000
    occupations:
  0.333  0.000  0.000
  0.000  0.333  0.000
  0.000  0.000  0.333
atom  120   Tr[ns(na)] =   2.00000
    eigenvalues: 
  0.333  0.333  0.333
    eigenvectors:
  1.000  0.000  0.000
  0.000  1.000  0.000
  0.000  0.000  1.000
    occupations:
  0.333  0.000  0.000
  0.000  0.333  0.000
  0.000  0.000  0.333
atom  121   Tr[ns(na)] =   2.00000
    eigenvalues: 
  0.333  0.333  0.333
    eigenvectors:
  1.000  0.000  0.000
  0.000  1.000  0.000
  0.000  0.000  1.000
    occupations:
  0.333  0.000  0.000
  0.000  0.333  0.000
  0.000  0.000  0.333
atom  122   Tr[ns(na)] =   2.00000
    eigenvalues: 
  0.333  0.333  0.333
    eigenvectors:
  1.000  0.000  0.000
  0.000  1.000  0.000
  0.000  0.000  1.000
    occupations:
  0.333  0.000  0.000
  0.000  0.333  0.000
  0.000  0.000  0.333
atom  123   Tr[ns(na)] =   2.00000
    eigenvalues: 
  0.333  0.333  0.333
    eigenvectors:
  1.000  0.000  0.000
  0.000  1.000  0.000
  0.000  0.000  1.000
    occupations:
  0.333  0.000  0.000
  0.000  0.333  0.000
  0.000  0.000  0.333
atom  124   Tr[ns(na)] =   2.00000
    eigenvalues: 
  0.333  0.333  0.333
    eigenvectors:
  1.000  0.000  0.000
  0.000  1.000  0.000
  0.000  0.000  1.000
    occupations:
  0.333  0.000  0.000
  0.000  0.333  0.000
  0.000  0.000  0.333
atom  125   Tr[ns(na)] =   2.00000
    eigenvalues: 
  0.333  0.333  0.333
    eigenvectors:
  1.000  0.000  0.000
  0.000  1.000  0.000
  0.000  0.000  1.000
    occupations:
  0.333  0.000  0.000
  0.000  0.333  0.000
  0.000  0.000  0.333
atom  126   Tr[ns(na)] =   2.00000
    eigenvalues: 
  0.333  0.333  0.333
    eigenvectors:
  1.000  0.000  0.000
  0.000  1.000  0.000
  0.000  0.000  1.000
    occupations:
  0.333  0.000  0.000
  0.000  0.333  0.000
  0.000  0.000  0.333
atom  127   Tr[ns(na)] =   2.00000
    eigenvalues: 
  0.333  0.333  0.333
    eigenvectors:
  1.000  0.000  0.000
  0.000  1.000  0.000
  0.000  0.000  1.000
    occupations:
  0.333  0.000  0.000
  0.000  0.333  0.000
  0.000  0.000  0.333
atom  128   Tr[ns(na)] =   2.00000
    eigenvalues: 
  0.333  0.333  0.333
    eigenvectors:
  1.000  0.000  0.000
  0.000  1.000  0.000
  0.000  0.000  1.000
    occupations:
  0.333  0.000  0.000
  0.000  0.333  0.000
  0.000  0.000  0.333
atom  129   Tr[ns(na)] =  10.00000
    eigenvalues: 
  1.000  1.000  1.000  1.000  1.000
    eigenvectors:
  1.000  0.000  0.000  0.000  0.000
  0.000  1.000  0.000  0.000  0.000
  0.000  0.000  1.000  0.000  0.000
  0.000  0.000  0.000  1.000  0.000
  0.000  0.000  0.000  0.000  1.000
    occupations:
  1.000  0.000  0.000  0.000  0.000
  0.000  1.000  0.000  0.000  0.000
  0.000  0.000  1.000  0.000  0.000
  0.000  0.000  0.000  1.000  0.000
  0.000  0.000  0.000  0.000  1.000
atom  130   Tr[ns(na)] =   3.00000
    eigenvalues: 
  0.500  0.500  0.500
    eigenvectors:
  1.000  0.000  0.000
  0.000  1.000  0.000
  0.000  0.000  1.000
    occupations:
  0.500  0.000  0.000
  0.000  0.500  0.000
  0.000  0.000  0.500
atom  131   Tr[ns(na)] =   3.00000
    eigenvalues: 
  0.500  0.500  0.500
    eigenvectors:
  1.000  0.000  0.000
  0.000  1.000  0.000
  0.000  0.000  1.000
    occupations:
  0.500  0.000  0.000
  0.000  0.500  0.000
  0.000  0.000  0.500
atom  132   Tr[ns(na)] =   3.00000
    eigenvalues: 
  0.500  0.500  0.500
    eigenvectors:
  1.000  0.000  0.000
  0.000  1.000  0.000
  0.000  0.000  1.000
    occupations:
  0.500  0.000  0.000
  0.000  0.500  0.000
  0.000  0.000  0.500
atom  133   Tr[ns(na)] =   3.00000
    eigenvalues: 
  0.500  0.500  0.500
    eigenvectors:
  1.000  0.000  0.000
  0.000  1.000  0.000
  0.000  0.000  1.000
    occupations:
  0.500  0.000  0.000
  0.000  0.500  0.000
  0.000  0.000  0.500
atom  134   Tr[ns(na)] =   3.00000
    eigenvalues: 
  0.500  0.500  0.500
    eigenvectors:
  1.000  0.000  0.000
  0.000  1.000  0.000
  0.000  0.000  1.000
    occupations:
  0.500  0.000  0.000
  0.000  0.500  0.000
  0.000  0.000  0.500
atom  135   Tr[ns(na)] =   3.00000
    eigenvalues: 
  0.500  0.500  0.500
    eigenvectors:
  1.000  0.000  0.000
  0.000  1.000  0.000
  0.000  0.000  1.000
    occupations:
  0.500  0.000  0.000
  0.000  0.500  0.000
  0.000  0.000  0.500
atom  136   Tr[ns(na)] =   3.00000
    eigenvalues: 
  0.500  0.500  0.500
    eigenvectors:
  1.000  0.000  0.000
  0.000  1.000  0.000
  0.000  0.000  1.000
    occupations:
  0.500  0.000  0.000
  0.000  0.500  0.000
  0.000  0.000  0.500
atom  137   Tr[ns(na)] =   3.00000
    eigenvalues: 
  0.500  0.500  0.500
    eigenvectors:
  1.000  0.000  0.000
  0.000  1.000  0.000
  0.000  0.000  1.000
    occupations:
  0.500  0.000  0.000
  0.000  0.500  0.000
  0.000  0.000  0.500
N of occupied +U levels =  290.000000
 --- exit write_ns ---
 Atomic wfc used for LDA+U Projector are NOT orthogonalized
     Starting wfc are  569 randomized atomic wfcs

     total cpu time spent up to now is       87.8 secs

     per-process dynamical memory:   759.6 Mb

     Self-consistent Calculation

     iteration #  1     ecut=    60.00 Ry     beta=0.70
     Davidson diagonalization with overlap
     ethr =  1.00E-02,  avg # of iterations =  3.0
 --- enter write_ns ---
 LDA+U parameters:
U( 1)     =  7.00000000
alpha( 1) =  0.00000000
U( 2)     =  5.50000000
alpha( 2) =  0.00000000
U( 3)     =  5.50000000
alpha( 3) =  0.00000000
atom    1   Tr[ns(na)] =   4.79642
    eigenvalues: 
  0.713  0.843  0.843
    eigenvectors:
  1.000  0.000  0.000
  0.000  0.006  0.994
  0.000  0.994  0.006
    occupations:
  0.713 -0.000  0.000
 -0.000  0.843  0.000
  0.000  0.000  0.843
atom    2   Tr[ns(na)] =   4.80079
    eigenvalues: 
  0.715  0.842  0.843
    eigenvectors:
  1.000  0.000  0.000
  0.000  0.991  0.009
  0.000  0.009  0.991
    occupations:
  0.715 -0.000  0.000
 -0.000  0.842 -0.000
  0.000 -0.000  0.843
atom    3   Tr[ns(na)] =   4.79953
    eigenvalues: 
  0.714  0.842  0.844
    eigenvectors:
  1.000  0.000  0.000
  0.000  0.245  0.755
  0.000  0.755  0.245
    occupations:
  0.714 -0.000  0.000
 -0.000  0.843  0.001
  0.000  0.001  0.843
atom    4   Tr[ns(na)] =   4.80863
    eigenvalues: 
  0.718  0.842  0.844
    eigenvectors:
  1.000  0.000  0.000
  0.000  0.910  0.090
  0.000  0.090  0.910
    occupations:
  0.718  0.000  0.000
  0.000  0.842 -0.000
  0.000 -0.000  0.844
atom    5   Tr[ns(na)] =   4.80153
    eigenvalues: 
  0.715  0.842  0.844
    eigenvectors:
  1.000  0.000  0.000
  0.000  0.031  0.969
  0.000  0.969  0.031
    occupations:
  0.715 -0.000  0.000
 -0.000  0.844  0.000
  0.000  0.000  0.842
atom    6   Tr[ns(na)] =   4.80974
    eigenvalues: 
  0.719  0.842  0.844
    eigenvectors:
  1.000  0.000  0.000
  0.000  0.841  0.159
  0.000  0.159  0.841
    occupations:
  0.719 -0.000  0.001
 -0.000  0.842 -0.001
  0.001 -0.001  0.844
atom    7   Tr[ns(na)] =   4.80748
    eigenvalues: 
  0.718  0.842  0.844
    eigenvectors:
  1.000  0.000  0.000
  0.000  0.000  1.000
  0.000  1.000  0.000
    occupations:
  0.718  0.000  0.000
  0.000  0.844  0.000
  0.000  0.000  0.842
atom    8   Tr[ns(na)] =   4.80967
    eigenvalues: 
  0.719  0.843  0.843
    eigenvectors:
  1.000  0.000  0.000
  0.000  0.997  0.003
  0.000  0.003  0.997
    occupations:
  0.719  0.000  0.001
  0.000  0.843  0.000
  0.001  0.000  0.843
atom    9   Tr[ns(na)] =   4.80552
    eigenvalues: 
  0.717  0.842  0.844
    eigenvectors:
  1.000  0.000  0.000
  0.000  0.114  0.886
  0.000  0.886  0.114
    occupations:
  0.717  0.000  0.001
  0.000  0.844  0.000
  0.001  0.000  0.843
atom   10   Tr[ns(na)] =   4.82001
    eigenvalues: 
  0.723  0.842  0.845
    eigenvectors:
  1.000  0.000  0.000
  0.000  0.948  0.052
  0.000  0.052  0.948
    occupations:
  0.723  0.000  0.000
  0.000  0.842 -0.001
  0.000 -0.001  0.845
atom   11   Tr[ns(na)] =   4.81639
    eigenvalues: 
  0.721  0.842  0.845
    eigenvectors:
  1.000  0.000  0.000
  0.000  0.059  0.941
  0.000  0.941  0.059
    occupations:
  0.721  0.000  0.001
  0.000  0.845  0.001
  0.001  0.001  0.842
atom   12   Tr[ns(na)] =   4.82686
    eigenvalues: 
  0.726  0.841  0.846
    eigenvectors:
  1.000  0.000  0.000
  0.000  0.873  0.127
  0.000  0.127  0.873
    occupations:
  0.726  0.001  0.001
  0.001  0.842 -0.001
  0.001 -0.001  0.845
atom   13   Tr[ns(na)] =   4.81607
    eigenvalues: 
  0.721  0.842  0.845
    eigenvectors:
  1.000  0.000  0.000
  0.000  0.160  0.840
  0.000  0.840  0.160
    occupations:
  0.721  0.000  0.001
  0.000  0.844  0.001
  0.001  0.001  0.842
atom   14   Tr[ns(na)] =   4.81932
    eigenvalues: 
  0.723  0.841  0.845
    eigenvectors:
  1.000  0.000  0.000
  0.000  0.705  0.295
  0.000  0.295  0.705
    occupations:
  0.723  0.000  0.001
  0.000  0.842 -0.002
  0.001 -0.002  0.844
atom   15   Tr[ns(na)] =   4.80837
    eigenvalues: 
  0.718  0.842  0.844
    eigenvectors:
  1.000  0.000  0.000
  0.000  0.376  0.624
  0.000  0.624  0.376
    occupations:
  0.718  0.000 -0.000
  0.000  0.843  0.001
 -0.000  0.001  0.843
atom   16   Tr[ns(na)] =   4.81041
    eigenvalues: 
  0.719  0.842  0.844
    eigenvectors:
  1.000  0.000  0.000
  0.000  0.417  0.583
  0.000  0.583  0.417
    occupations:
  0.719  0.000 -0.000
  0.000  0.843 -0.001
 -0.000 -0.001  0.843
atom   17   Tr[ns(na)] =   4.80910
    eigenvalues: 
  0.719  0.842  0.843
    eigenvectors:
  1.000  0.000  0.000
  0.000  0.963  0.037
  0.000  0.037  0.963
    occupations:
  0.719 -0.000 -0.001
 -0.000  0.843  0.000
 -0.001  0.000  0.843
atom   18   Tr[ns(na)] =   4.80911
    eigenvalues: 
  0.718  0.842  0.844
    eigenvectors:
  1.000  0.000  0.000
  0.000  0.000  1.000
  0.000  1.000  0.000
    occupations:
  0.718 -0.000 -0.000
 -0.000  0.844 -0.000
 -0.000 -0.000  0.842
atom   19   Tr[ns(na)] =   4.80222
    eigenvalues: 
  0.716  0.842  0.844
    eigenvectors:
  1.000  0.000  0.000
  0.000  0.002  0.998
  0.000  0.998  0.002
    occupations:
  0.716  0.000  0.001
  0.000  0.844 -0.000
  0.001 -0.000  0.842
atom   20   Tr[ns(na)] =   4.81448
    eigenvalues: 
  0.721  0.842  0.845
    eigenvectors:
  1.000  0.000  0.000
  0.000  1.000  0.000
  0.000  0.000  1.000
    occupations:
  0.721  0.000  0.001
  0.000  0.842 -0.000
  0.001 -0.000  0.845
atom   21   Tr[ns(na)] =   4.82098
    eigenvalues: 
  0.724  0.841  0.846
    eigenvectors:
  1.000  0.000  0.000
  0.000  0.014  0.986
  0.000  0.986  0.014
    occupations:
  0.724  0.000  0.001
  0.000  0.846  0.001
  0.001  0.001  0.841
atom   22   Tr[ns(na)] =   4.85030
    eigenvalues: 
  0.737  0.841  0.847
    eigenvectors:
  1.000  0.000  0.000
  0.000  0.979  0.021
  0.000  0.021  0.979
    occupations:
  0.737  0.000  0.000
  0.000  0.841 -0.001
  0.000 -0.001  0.847
atom   23   Tr[ns(na)] =   4.84449
    eigenvalues: 
  0.734  0.841  0.847
    eigenvectors:
  1.000  0.000  0.000
  0.000  0.100  0.900
  0.000  0.900  0.100
    occupations:
  0.734 -0.000  0.000
 -0.000  0.847  0.002
  0.000  0.002  0.841
atom   24   Tr[ns(na)] =   4.86826
    eigenvalues: 
  0.746  0.841  0.848
    eigenvectors:
  1.000  0.000  0.000
  0.000  0.768  0.232
  0.000  0.232  0.768
    occupations:
  0.746  0.000  0.000
  0.000  0.842 -0.003
  0.000 -0.003  0.846
atom   25   Tr[ns(na)] =   4.84621
    eigenvalues: 
  0.735  0.841  0.847
    eigenvectors:
  1.000  0.000  0.000
  0.000  0.409  0.591
  0.000  0.591  0.409
    occupations:
  0.735  0.000 -0.000
  0.000  0.844  0.003
 -0.000  0.003  0.843
atom   26   Tr[ns(na)] =   4.84758
    eigenvalues: 
  0.736  0.841  0.847
    eigenvectors:
  1.000  0.000  0.000
  0.000  0.430  0.570
  0.000  0.570  0.430
    occupations:
  0.736 -0.000 -0.000
 -0.000  0.844 -0.003
 -0.000 -0.003  0.843
atom   27   Tr[ns(na)] =   4.82513
    eigenvalues: 
  0.726  0.841  0.845
    eigenvectors:
  1.000  0.000  0.000
  0.000  0.705  0.295
  0.000  0.295  0.705
    occupations:
  0.726  0.000 -0.001
  0.000  0.843  0.002
 -0.001  0.002  0.844
atom   28   Tr[ns(na)] =   4.82288
    eigenvalues: 
  0.724  0.842  0.846
    eigenvectors:
  1.000  0.000  0.000
  0.000  0.199  0.801
  0.000  0.801  0.199
    occupations:
  0.724  0.000 -0.000
  0.000  0.845 -0.001
 -0.000 -0.001  0.843
atom   29   Tr[ns(na)] =   4.81616
    eigenvalues: 
  0.722  0.842  0.844
    eigenvectors:
  1.000  0.000  0.000
  0.000  0.888  0.112
  0.000  0.112  0.888
    occupations:
  0.722 -0.000 -0.001
 -0.000  0.842  0.001
 -0.001  0.001  0.844
atom   30   Tr[ns(na)] =   4.80450
    eigenvalues: 
  0.716  0.842  0.844
    eigenvectors:
  1.000  0.000  0.000
  0.000  0.073  0.927
  0.000  0.927  0.073
    occupations:
  0.716 -0.000 -0.000
 -0.000  0.844 -0.000
 -0.000 -0.000  0.842
atom   31   Tr[ns(na)] =   4.80058
    eigenvalues: 
  0.715  0.842  0.843
    eigenvectors:
  1.000  0.000  0.000
  0.000  0.999  0.001
  0.000  0.001  0.999
    occupations:
  0.715  0.000 -0.000
  0.000  0.842 -0.000
 -0.000 -0.000  0.843
atom   32   Tr[ns(na)] =   4.79694
    eigenvalues: 
  0.713  0.842  0.843
    eigenvectors:
  1.000  0.000  0.000
  0.000  0.002  0.998
  0.000  0.998  0.002
    occupations:
  0.713  0.000 -0.000
  0.000  0.843 -0.000
 -0.000 -0.000  0.842
atom   33   Tr[ns(na)] =   4.80099
    eigenvalues: 
  0.715  0.842  0.843
    eigenvectors:
  1.000  0.000  0.000
  0.000  0.078  0.922
  0.000  0.922  0.078
    occupations:
  0.715 -0.000  0.001
 -0.000  0.843 -0.000
  0.001 -0.000  0.842
atom   34   Tr[ns(na)] =   4.81246
    eigenvalues: 
  0.720  0.841  0.845
    eigenvectors:
  1.000  0.000  0.000
  0.000  0.926  0.074
  0.000  0.074  0.926
    occupations:
  0.720 -0.000  0.000
 -0.000  0.842  0.001
  0.000  0.001  0.844
atom   35   Tr[ns(na)] =   4.81549
    eigenvalues: 
  0.721  0.841  0.845
    eigenvectors:
  1.000  0.000  0.000
  0.000  0.013  0.987
  0.000  0.987  0.013
    occupations:
  0.721 -0.000  0.001
 -0.000  0.845 -0.001
  0.001 -0.001  0.841
atom   36   Tr[ns(na)] =   4.85154
    eigenvalues: 
  0.738  0.841  0.847
    eigenvectors:
  1.000  0.000  0.000
  0.000  0.965  0.035
  0.000  0.035  0.965
    occupations:
  0.738 -0.000  0.000
 -0.000  0.841  0.001
  0.000  0.001  0.847
atom   37   Tr[ns(na)] =   4.85619
    eigenvalues: 
  0.740  0.840  0.848
    eigenvectors:
  1.000  0.000  0.000
  0.000  0.000  1.000
  0.000  1.000  0.000
    occupations:
  0.740 -0.000  0.000
 -0.000  0.848 -0.000
  0.000 -0.000  0.840
atom   38   Tr[ns(na)] =   4.92686
    eigenvalues: 
  0.772  0.842  0.849
    eigenvectors:
  1.000  0.000  0.000
  0.000  1.000  0.000
  0.000  0.000  1.000
    occupations:
  0.772  0.000 -0.001
  0.000  0.842  0.000
 -0.001  0.000  0.849
atom   39   Tr[ns(na)] =   4.92175
    eigenvalues: 
  0.769  0.843  0.849
    eigenvectors:
  1.000  0.000  0.000
  0.000  0.225  0.775
  0.000  0.775  0.225
    occupations:
  0.769 -0.001 -0.001
 -0.001  0.848  0.003
 -0.001  0.003  0.844
atom   40   Tr[ns(na)] =   4.92531
    eigenvalues: 
  0.771  0.843  0.849
    eigenvectors:
  1.000  0.000  0.000
  0.000  0.258  0.742
  0.000  0.742  0.258
    occupations:
  0.771 -0.001  0.000
 -0.001  0.847 -0.003
  0.000 -0.003  0.844
atom   41   Tr[ns(na)] =   4.87269
    eigenvalues: 
  0.747  0.841  0.848
    eigenvectors:
  1.000  0.000  0.000
  0.000  0.757  0.243
  0.000  0.242  0.757
    occupations:
  0.747  0.001 -0.001
  0.001  0.843  0.003
 -0.001  0.003  0.846
atom   42   Tr[ns(na)] =   4.84627
    eigenvalues: 
  0.735  0.841  0.847
    eigenvectors:
  1.000  0.000  0.000
  0.000  0.108  0.892
  0.000  0.892  0.108
    occupations:
  0.735 -0.000 -0.000
 -0.000  0.847 -0.002
 -0.000 -0.002  0.841
atom   43   Tr[ns(na)] =   4.82808
    eigenvalues: 
  0.727  0.841  0.846
    eigenvectors:
  1.000  0.000  0.000
  0.000  0.860  0.140
  0.000  0.140  0.860
    occupations:
  0.727  0.000 -0.001
  0.000  0.842  0.002
 -0.001  0.002  0.845
atom   44   Tr[ns(na)] =   4.81535
    eigenvalues: 
  0.721  0.842  0.845
    eigenvectors:
  1.000  0.000  0.000
  0.000  0.070  0.930
  0.000  0.930  0.070
    occupations:
  0.721  0.000 -0.000
  0.000  0.845 -0.001
 -0.000 -0.001  0.842
atom   45   Tr[ns(na)] =   4.80825
    eigenvalues: 
  0.718  0.842  0.844
    eigenvectors:
  1.000  0.000  0.000
  0.000  0.921  0.079
  0.000  0.079  0.921
    occupations:
  0.718  0.000  0.000
  0.000  0.842  0.001
  0.000  0.001  0.844
atom   46   Tr[ns(na)] =   4.79783
    eigenvalues: 
  0.713  0.842  0.843
    eigenvectors:
  1.000  0.000  0.000
  0.000  0.173  0.827
  0.000  0.827  0.173
    occupations:
  0.713  0.000 -0.000
  0.000  0.843 -0.000
 -0.000 -0.000  0.843
atom   47   Tr[ns(na)] =   4.79893
    eigenvalues: 
  0.714  0.843  0.843
    eigenvectors:
  1.000  0.000  0.000
  0.000  0.873  0.127
  0.000  0.127  0.873
    occupations:
  0.714  0.000  0.000
  0.000  0.843  0.000
  0.000  0.000  0.843
atom   48   Tr[ns(na)] =   4.79842
    eigenvalues: 
  0.714  0.843  0.843
    eigenvectors:
  1.000  0.000  0.000
  0.000  0.944  0.056
  0.000  0.056  0.944
    occupations:
  0.714  0.000 -0.000
  0.000  0.843 -0.000
 -0.000 -0.000  0.843
atom   49   Tr[ns(na)] =   4.79754
    eigenvalues: 
  0.713  0.842  0.843
    eigenvectors:
  1.000  0.000  0.000
  0.000  0.209  0.791
  0.000  0.791  0.209
    occupations:
  0.713 -0.000  0.000
 -0.000  0.843 -0.000
  0.000 -0.000  0.843
atom   50   Tr[ns(na)] =   4.80855
    eigenvalues: 
  0.718  0.842  0.844
    eigenvectors:
  1.000  0.000  0.000
  0.000  0.932  0.068
  0.000  0.068  0.932
    occupations:
  0.718 -0.000 -0.000
 -0.000  0.842  0.000
 -0.000  0.000  0.844
atom   51   Tr[ns(na)] =   4.81364
    eigenvalues: 
  0.720  0.842  0.845
    eigenvectors:
  1.000  0.000  0.000
  0.000  0.080  0.920
  0.000  0.920  0.080
    occupations:
  0.720 -0.000  0.000
 -0.000  0.845 -0.001
  0.000 -0.001  0.842
atom   52   Tr[ns(na)] =   4.82674
    eigenvalues: 
  0.726  0.841  0.846
    eigenvectors:
  1.000  0.000  0.000
  0.000  0.861  0.139
  0.000  0.139  0.861
    occupations:
  0.726 -0.000  0.001
 -0.000  0.842  0.002
  0.001  0.002  0.845
atom   53   Tr[ns(na)] =   4.84353
    eigenvalues: 
  0.734  0.841  0.847
    eigenvectors:
  1.000  0.000  0.000
  0.000  0.106  0.894
  0.000  0.894  0.106
    occupations:
  0.734 -0.000  0.000
 -0.000  0.847 -0.002
  0.000 -0.002  0.841
atom   54   Tr[ns(na)] =   4.86956
    eigenvalues: 
  0.746  0.841  0.848
    eigenvectors:
  1.000  0.000  0.000
  0.000  0.763  0.237
  0.000  0.237  0.763
    occupations:
  0.746 -0.001  0.000
 -0.001  0.842  0.003
  0.000  0.003  0.846
atom   55   Tr[ns(na)] =   4.92291
    eigenvalues: 
  0.770  0.842  0.849
    eigenvectors:
  1.000  0.000  0.000
  0.000  0.239  0.760
  0.000  0.761  0.239
    occupations:
  0.770  0.001 -0.000
  0.001  0.848 -0.003
 -0.000 -0.003  0.844
atom   56   Tr[ns(na)] =   4.92132
    eigenvalues: 
  0.769  0.842  0.849
    eigenvectors:
  1.000  0.000  0.000
  0.000  0.269  0.731
  0.000  0.731  0.269
    occupations:
  0.769  0.001  0.000
  0.001  0.847  0.003
  0.000  0.003  0.844
atom   57   Tr[ns(na)] =   4.93015
    eigenvalues: 
  0.773  0.843  0.849
    eigenvectors:
  1.000  0.000  0.000
  0.000  1.000  0.000
  0.000  0.000  1.000
    occupations:
  0.773  0.000  0.001
  0.000  0.843 -0.000
  0.001 -0.000  0.849
atom   58   Tr[ns(na)] =   4.85973
    eigenvalues: 
  0.741  0.840  0.848
    eigenvectors:
  1.000  0.000  0.000
  0.000  0.000  1.000
  0.000  1.000  0.000
    occupations:
  0.741  0.000 -0.000
  0.000  0.848  0.000
 -0.000  0.000  0.840
atom   59   Tr[ns(na)] =   4.85175
    eigenvalues: 
  0.738  0.841  0.847
    eigenvectors:
  1.000  0.000  0.000
  0.000  0.969  0.031
  0.000  0.031  0.969
    occupations:
  0.738  0.000 -0.000
  0.000  0.841  0.001
 -0.000  0.001  0.847
atom   60   Tr[ns(na)] =   4.81671
    eigenvalues: 
  0.722  0.841  0.846
    eigenvectors:
  1.000  0.000  0.000
  0.000  0.010  0.990
  0.000  0.990  0.010
    occupations:
  0.722  0.000 -0.000
  0.000  0.846 -0.000
 -0.000 -0.000  0.841
atom   61   Tr[ns(na)] =   4.81385
    eigenvalues: 
  0.721  0.841  0.845
    eigenvectors:
  1.000  0.000  0.000
  0.000  0.925  0.075
  0.000  0.075  0.925
    occupations:
  0.721  0.000 -0.000
  0.000  0.842  0.001
 -0.000  0.001  0.844
atom   62   Tr[ns(na)] =   4.80229
    eigenvalues: 
  0.716  0.842  0.844
    eigenvectors:
  1.000  0.000  0.000
  0.000  0.066  0.934
  0.000  0.934  0.066
    occupations:
  0.716  0.000 -0.001
  0.000  0.843 -0.000
 -0.001 -0.000  0.842
atom   63   Tr[ns(na)] =   4.79926
    eigenvalues: 
  0.714  0.842  0.843
    eigenvectors:
  1.000  0.000  0.000
  0.000  0.837  0.163
  0.000  0.163  0.837
    occupations:
  0.714  0.000  0.000
  0.000  0.842  0.000
  0.000  0.000  0.843
atom   64   Tr[ns(na)] =   4.80067
    eigenvalues: 
  0.715  0.842  0.843
    eigenvectors:
  1.000  0.000  0.000
  0.000  0.895  0.105
  0.000  0.105  0.895
    occupations:
  0.715  0.000 -0.000
  0.000  0.842 -0.000
 -0.000 -0.000  0.843
atom   65   Tr[ns(na)] =   4.80312
    eigenvalues: 
  0.715  0.842  0.844
    eigenvectors:
  1.000  0.000  0.000
  0.000  0.077  0.923
  0.000  0.923  0.077
    occupations:
  0.715  0.000  0.000
  0.000  0.844 -0.000
  0.000 -0.000  0.842
atom   66   Tr[ns(na)] =   4.81446
    eigenvalues: 
  0.721  0.842  0.844
    eigenvectors:
  1.000  0.000  0.000
  0.000  0.898  0.102
  0.000  0.102  0.898
    occupations:
  0.721  0.000  0.001
  0.000  0.842  0.001
  0.001  0.001  0.844
atom   67   Tr[ns(na)] =   4.82180
    eigenvalues: 
  0.723  0.842  0.845
    eigenvectors:
  1.000  0.000  0.000
  0.000  0.178  0.822
  0.000  0.822  0.178
    occupations:
  0.723 -0.000  0.000
 -0.000  0.845 -0.001
  0.000 -0.001  0.843
atom   68   Tr[ns(na)] =   4.82582
    eigenvalues: 
  0.726  0.842  0.845
    eigenvectors:
  1.000  0.000  0.000
  0.000  0.699  0.301
  0.000  0.301  0.699
    occupations:
  0.726 -0.000  0.001
 -0.000  0.843  0.002
  0.001  0.002  0.844
atom   69   Tr[ns(na)] =   4.84520
    eigenvalues: 
  0.735  0.841  0.847
    eigenvectors:
  1.000  0.000  0.000
  0.000  0.414  0.586
  0.000  0.586  0.414
    occupations:
  0.735  0.000  0.000
  0.000  0.845 -0.003
  0.000 -0.003  0.843
atom   70   Tr[ns(na)] =   4.84536
    eigenvalues: 
  0.735  0.841  0.847
    eigenvectors:
  1.000  0.000  0.000
  0.000  0.436  0.564
  0.000  0.564  0.436
    occupations:
  0.735 -0.000  0.000
 -0.000  0.844  0.003
  0.000  0.003  0.843
atom   71   Tr[ns(na)] =   4.86768
    eigenvalues: 
  0.745  0.840  0.848
    eigenvectors:
  1.000  0.000  0.000
  0.000  0.756  0.244
  0.000  0.244  0.756
    occupations:
  0.745 -0.000 -0.000
 -0.000  0.842 -0.003
 -0.000 -0.003  0.846
atom   72   Tr[ns(na)] =   4.84522
    eigenvalues: 
  0.734  0.841  0.847
    eigenvectors:
  1.000  0.000  0.000
  0.000  0.109  0.891
  0.000  0.891  0.109
    occupations:
  0.734  0.000 -0.001
  0.000  0.847  0.002
 -0.001  0.002  0.842
atom   73   Tr[ns(na)] =   4.85505
    eigenvalues: 
  0.740  0.841  0.847
    eigenvectors:
  1.000  0.000  0.000
  0.000  0.971  0.029
  0.000  0.029  0.971
    occupations:
  0.740 -0.000 -0.000
 -0.000  0.841 -0.001
 -0.000 -0.001  0.847
atom   74   Tr[ns(na)] =   4.82200
    eigenvalues: 
  0.724  0.841  0.846
    eigenvectors:
  1.000  0.000  0.000
  0.000  0.019  0.981
  0.000  0.981  0.019
    occupations:
  0.724 -0.000 -0.001
 -0.000  0.846  0.001
 -0.001  0.001  0.841
atom   75   Tr[ns(na)] =   4.81546
    eigenvalues: 
  0.721  0.842  0.845
    eigenvectors:
  1.000  0.000  0.000
  0.000  1.000  0.000
  0.000  0.000  1.000
    occupations:
  0.721 -0.000 -0.001
 -0.000  0.842 -0.000
 -0.001 -0.000  0.845
atom   76   Tr[ns(na)] =   4.80298
    eigenvalues: 
  0.716  0.842  0.844
    eigenvectors:
  1.000  0.000  0.000
  0.000  0.002  0.998
  0.000  0.998  0.002
    occupations:
  0.716 -0.000 -0.001
 -0.000  0.844 -0.000
 -0.001 -0.000  0.842
atom   77   Tr[ns(na)] =   4.80217
    eigenvalues: 
  0.715  0.842  0.843
    eigenvectors:
  1.000  0.000  0.000
  0.000  0.959  0.041
  0.000  0.041  0.959
    occupations:
  0.715  0.000  0.000
  0.000  0.842  0.000
  0.000  0.000  0.843
atom   78   Tr[ns(na)] =   4.80139
    eigenvalues: 
  0.715  0.842  0.843
    eigenvectors:
  1.000  0.000  0.000
  0.000  0.927  0.073
  0.000  0.073  0.927
    occupations:
  0.715 -0.000 -0.000
 -0.000  0.842 -0.000
 -0.000 -0.000  0.843
atom   79   Tr[ns(na)] =   4.81004
    eigenvalues: 
  0.719  0.842  0.844
    eigenvectors:
  1.000  0.000  0.000
  0.000  0.356  0.644
  0.000  0.644  0.356
    occupations:
  0.719 -0.000  0.000
 -0.000  0.843 -0.001
  0.000 -0.001  0.843
atom   80   Tr[ns(na)] =   4.80746
    eigenvalues: 
  0.718  0.842  0.844
    eigenvectors:
  1.000  0.000  0.000
  0.000  0.410  0.590
  0.000  0.590  0.410
    occupations:
  0.718 -0.000  0.000
 -0.000  0.843  0.001
  0.000  0.001  0.843
atom   81   Tr[ns(na)] =   4.82000
    eigenvalues: 
  0.724  0.841  0.845
    eigenvectors:
  1.000  0.000  0.000
  0.000  0.703  0.297
  0.000  0.297  0.703
    occupations:
  0.724 -0.000 -0.001
 -0.000  0.842 -0.002
 -0.001 -0.002  0.844
atom   82   Tr[ns(na)] =   4.81690
    eigenvalues: 
  0.722  0.842  0.845
    eigenvectors:
  1.000  0.000  0.000
  0.000  0.163  0.837
  0.000  0.837  0.163
    occupations:
  0.722 -0.000 -0.001
 -0.000  0.844  0.001
 -0.001  0.001  0.842
atom   83   Tr[ns(na)] =   4.82696
    eigenvalues: 
  0.726  0.841  0.846
    eigenvectors:
  1.000  0.000  0.000
  0.000  0.861  0.139
  0.000  0.139  0.861
    occupations:
  0.726 -0.001 -0.001
 -0.001  0.842 -0.002
 -0.001 -0.002  0.845
atom   84   Tr[ns(na)] =   4.81669
    eigenvalues: 
  0.721  0.842  0.845
    eigenvectors:
  1.000  0.000  0.000
  0.000  0.067  0.933
  0.000  0.933  0.067
    occupations:
  0.721 -0.000 -0.001
 -0.000  0.845  0.001
 -0.001  0.001  0.842
atom   85   Tr[ns(na)] =   4.81977
    eigenvalues: 
  0.723  0.842  0.845
    eigenvectors:
  1.000  0.000  0.000
  0.000  0.950  0.050
  0.000  0.050  0.950
    occupations:
  0.723 -0.000 -0.000
 -0.000  0.842 -0.001
 -0.000 -0.001  0.845
atom   86   Tr[ns(na)] =   4.80540
    eigenvalues: 
  0.717  0.842  0.844
    eigenvectors:
  1.000  0.000  0.000
  0.000  0.086  0.914
  0.000  0.914  0.086
    occupations:
  0.717 -0.000 -0.001
 -0.000  0.844  0.000
 -0.001  0.000  0.842
atom   87   Tr[ns(na)] =   4.80322
    eigenvalues: 
  0.716  0.842  0.843
    eigenvectors:
  1.000  0.000  0.000
  0.000  0.902  0.098
  0.000  0.098  0.902
    occupations:
  0.716  0.000  0.000
  0.000  0.842 -0.000
  0.000 -0.000  0.843
atom   88   Tr[ns(na)] =   4.80282
    eigenvalues: 
  0.716  0.842  0.843
    eigenvectors:
  1.000  0.000  0.000
  0.000  0.940  0.060
  0.000  0.060  0.940
    occupations:
  0.716 -0.000 -0.000
 -0.000  0.842  0.000
 -0.000  0.000  0.843
atom   89   Tr[ns(na)] =   4.80928
    eigenvalues: 
  0.719  0.842  0.844
    eigenvectors:
  1.000  0.000  0.000
  0.000  0.828  0.172
  0.000  0.172  0.828
    occupations:
  0.719  0.000 -0.001
  0.000  0.842 -0.001
 -0.001 -0.001  0.844
atom   90   Tr[ns(na)] =   4.80112
    eigenvalues: 
  0.714  0.842  0.844
    eigenvectors:
  1.000  0.000  0.000
  0.000  0.032  0.968
  0.000  0.968  0.032
    occupations:
  0.714  0.000 -0.000
  0.000  0.844  0.000
 -0.000  0.000  0.842
atom   91   Tr[ns(na)] =   4.80966
    eigenvalues: 
  0.719  0.842  0.844
    eigenvectors:
  1.000  0.000  0.000
  0.000  0.922  0.078
  0.000  0.078  0.922
    occupations:
  0.719 -0.000 -0.000
 -0.000  0.842 -0.000
 -0.000 -0.000  0.844
atom   92   Tr[ns(na)] =   4.80050
    eigenvalues: 
  0.714  0.842  0.844
    eigenvectors:
  1.000  0.000  0.000
  0.000  0.176  0.824
  0.000  0.824  0.176
    occupations:
  0.714  0.000 -0.000
  0.000  0.843  0.000
 -0.000  0.000  0.843
atom   93   Tr[ns(na)] =   4.80137
    eigenvalues: 
  0.715  0.842  0.843
    eigenvectors:
  1.000  0.000  0.000
  0.000  0.874  0.126
  0.000  0.126  0.874
    occupations:
  0.715 -0.000  0.000
 -0.000  0.843 -0.000
  0.000 -0.000  0.843
atom   94   Tr[ns(na)] =   4.79847
    eigenvalues: 
  0.714  0.842  0.843
    eigenvectors:
  1.000  0.000  0.000
  0.000  0.817  0.183
  0.000  0.183  0.817
    occupations:
  0.714 -0.000 -0.000
 -0.000  0.842  0.000
 -0.000  0.000  0.843
atom   95   Tr[ns(na)] =   4.79824
    eigenvalues: 
  0.714  0.843  0.843
    eigenvectors:
  1.000  0.000  0.000
  0.000  0.905  0.095
  0.000  0.095  0.905
    occupations:
  0.714 -0.000  0.000
 -0.000  0.843 -0.000
  0.000 -0.000  0.843
atom   96   Tr[ns(na)] =   4.79756
    eigenvalues: 
  0.713  0.842  0.843
    eigenvectors:
  1.000  0.000  0.000
  0.000  0.850  0.150
  0.000  0.150  0.850
    occupations:
  0.713 -0.000  0.000
 -0.000  0.843  0.000
  0.000  0.000  0.843
atom   97   Tr[ns(na)] =   4.75492
    eigenvalues: 
  0.763  0.778  0.837
    eigenvectors:
  1.000  0.000  0.000
  0.000  0.000  1.000
  0.000  0.999  0.000
    occupations:
  0.763 -0.000  0.000
 -0.000  0.837  0.001
  0.000  0.001  0.778
atom   98   Tr[ns(na)] =   4.76320
    eigenvalues: 
  0.766  0.779  0.837
    eigenvectors:
  1.000  0.000  0.000
  0.000  0.909  0.091
  0.000  0.091  0.909
    occupations:
  0.766 -0.000  0.000
 -0.000  0.784 -0.017
  0.000 -0.017  0.832
atom   99   Tr[ns(na)] =   4.93415
    eigenvalues: 
  0.776  0.818  0.874
    eigenvectors:
  1.000  0.000  0.000
  0.000  0.747  0.253
  0.000  0.253  0.747
    occupations:
  0.776  0.000 -0.000
  0.000  0.832 -0.024
 -0.000 -0.024  0.859
[...]
  1.000  0.000  0.000
  0.000  0.347  0.653
  0.000  0.653  0.347
    occupations:
  0.855 -0.000  0.000
 -0.000  0.900 -0.019
  0.000 -0.019  0.888
atom  131   Tr[ns(na)] =   5.20982
    eigenvalues: 
  0.777  0.883  0.945
    eigenvectors:
  1.000  0.000  0.000
  0.000  0.975  0.025
  0.000  0.025  0.975
    occupations:
  0.777 -0.000 -0.001
 -0.000  0.884 -0.010
 -0.001 -0.010  0.943
atom  132   Tr[ns(na)] =   5.21341
    eigenvalues: 
  0.778  0.884  0.945
    eigenvectors:
  1.000  0.000  0.000
  0.000  0.024  0.976
  0.000  0.976  0.024
    occupations:
  0.778  0.001  0.001
  0.001  0.944  0.009
  0.001  0.009  0.885
atom  133   Tr[ns(na)] =   5.27907
    eigenvalues: 
  0.852  0.874  0.914
    eigenvectors:
  1.000  0.000  0.000
  0.000  0.654  0.346
  0.000  0.346  0.654
    occupations:
  0.852 -0.000 -0.000
 -0.000  0.888  0.019
 -0.000  0.019  0.900
atom  134   Tr[ns(na)] =   5.21027
    eigenvalues: 
  0.777  0.883  0.945
    eigenvectors:
  1.000  0.000  0.000
  0.000  0.024  0.976
  0.000  0.976  0.024
    occupations:
  0.777 -0.001 -0.001
 -0.001  0.943  0.009
 -0.001  0.009  0.885
atom  135   Tr[ns(na)] =   5.28418
    eigenvalues: 
  0.854  0.874  0.914
    eigenvectors:
  1.000  0.000  0.000
  0.000  0.665  0.335
  0.000  0.335  0.665
    occupations:
  0.854  0.000  0.000
  0.000  0.888  0.019
  0.000  0.019  0.901
atom  136   Tr[ns(na)] =   5.21005
    eigenvalues: 
  0.777  0.883  0.945
    eigenvectors:
  1.000  0.000  0.000
  0.000  0.974  0.026
  0.000  0.026  0.974
    occupations:
  0.777  0.000  0.001
  0.000  0.885 -0.010
  0.001 -0.010  0.943
atom  137   Tr[ns(na)] =   5.28030
    eigenvalues: 
  0.853  0.874  0.914
    eigenvectors:
  1.000  0.000  0.000
  0.000  0.341  0.659
  0.000  0.659  0.341
    occupations:
  0.853  0.000 -0.000
  0.000  0.900 -0.019
 -0.000 -0.019  0.887
N of occupied +U levels =  689.138730
 --- exit write_ns ---

          k = 0.1667 0.1444-0.3690 (266428 PWs)   bands (ev):

   -25.8276 -25.7914 -25.7759 -25.7216 -24.6023 -23.9510 -23.9451 -23.3313
   -22.8056 -22.7992 -22.7676 -22.7425 -22.7206 -22.6991 -22.6476 -22.6343
   -22.6274 -22.5366 -22.4998 -22.4782 -22.3913 -22.3556 -22.2871 -22.2849
   -22.1845 -22.1666 -22.0835 -22.0680 -21.9573 -21.9266 -21.8555 -21.8293
   -21.7942 -21.7523 -21.4031 -21.3280 -21.1864 -21.1519 -21.0203 -21.0123
   -20.6414 -20.6297 -20.5862 -20.4104 -20.1866 -20.1734 -20.0049 -19.8835
   -19.7290 -19.5303 -19.4746 -19.3404 -19.3140 -19.2848 -19.2602 -19.2151
   -19.1604 -19.1430 -19.0241 -19.0055 -18.9671 -18.9230 -18.7964 -18.6740
   -18.3022 -18.2980 -17.9559 -17.7375 -17.7269 -17.3151 -17.1878 -17.0103
   -16.9996 -16.9957 -16.8546 -16.8434 -16.7843 -16.7679 -16.4616 -16.4272
   -16.2533 -16.2252 -16.2106 -16.1817 -16.1664 -16.1368 -15.9477 -15.9373
   -15.8841 -15.5335 -15.5185 -15.4699 -15.3860 -15.3044 -15.2381 -15.1899
   -15.1855 -15.0962 -15.0638 -14.8895 -14.8669 -14.7752 -14.6839 -14.6418
   -14.4628 -14.1638 -14.1425 -14.0387 -13.8637 -13.7871 -13.7778 -13.7756
   -13.7268 -13.6972 -13.6830 -13.6234 -13.5494 -13.5482 -13.5069 -13.4523
   -13.1376 -12.9780 -12.9479 -12.8869 -12.8791 -12.7338 -12.6725 -12.5306
   -12.4870 -12.4346 -12.3066 -12.2981 -12.1408 -12.1224 -12.0973 -12.0226
   -11.9235 -11.9162 -11.8879 -11.8768 -11.8245 -11.7883 -11.7832 -11.7203
   -11.6622 -11.6138 -11.5383 -11.4970 -11.4776 -11.4283 -11.3985 -11.3907
   -11.3500 -11.2951 -11.1541 -11.1171 -11.0843 -11.0671 -11.0651 -10.9860
   -10.8333 -10.7811 -10.6817 -10.6001 -10.5478 -10.5219 -10.5047 -10.4932
   -10.4841 -10.4746 -10.4526 -10.4014 -10.3947 -10.3895 -10.3309 -10.3222
   -10.3054 -10.2750 -10.2618 -10.1277 -10.0664 -10.0240  -9.9390  -9.9090
    -9.8719  -9.8522  -9.8490  -9.7916  -9.7630  -9.7533  -9.7252  -9.7181
    -9.6430  -9.6176  -9.5693  -9.5572  -9.4371  -9.4343  -9.4026  -9.3802
    -9.3048  -9.2612  -9.2445  -9.2418  -9.2186  -9.0447  -9.0188  -8.9330
    -8.8904  -8.8571  -8.8211  -8.8068  -8.7596  -8.7206  -8.6148  -8.6039
    -8.5701  -8.5385  -8.4191  -8.3398  -8.2801  -8.1874  -8.1161  -8.1008
    -8.0992  -8.0639  -8.0341  -8.0202  -7.9237  -7.9074  -7.8307  -7.8037
    -7.7750  -7.6633  -7.6563  -7.6167  -7.5977  -7.4866  -7.4264  -7.4060
    -7.4022  -7.3241  -7.2878  -7.2160  -7.0625  -7.0480  -7.0435  -6.9412
    -6.7815  -6.7676  -6.6335  -6.5875  -6.5860  -6.5725  -6.3586  -6.2236
    -6.1702  -6.1541  -6.0889  -6.0556  -6.0079  -5.9960  -5.9218  -5.9165
    -5.8088  -5.7793  -5.7137  -5.6730  -5.6633  -5.6261  -5.5726  -5.5308
    -5.5037  -5.4062  -5.3106  -5.2427  -5.1323  -5.0959  -4.9642  -4.9399
    -4.9048  -4.8220  -4.6957  -4.5654  -4.2581  -4.1441  -3.8163  -3.8002
    -2.9977  -2.9531  -2.2419  -2.2255  -1.8366  -1.8077  -0.8392  -0.8184
    -0.6263  -0.5368  -0.4847  -0.4229  -0.4207  -0.3577  -0.3389  -0.2974
    -0.2523  -0.2021  -0.0942   0.0744   0.0992   0.1255   0.3863   0.4257
     0.7033   0.7673   0.8629   0.9875   1.1679   1.2495   1.3234   1.3633

          k = 0.1667-0.4331-0.3690 (266460 PWs)   bands (ev):

   -25.8275 -25.7915 -25.7760 -25.7217 -24.6021 -23.9511 -23.9447 -23.3289
   -22.8201 -22.7899 -22.7834 -22.7788 -22.7218 -22.7081 -22.6436 -22.6242
   -22.5785 -22.5519 -22.3851 -22.3801 -22.3119 -22.2911 -22.2564 -22.2520
   -22.2041 -22.1847 -22.0941 -22.0920 -22.0835 -22.0186 -21.9905 -21.8328
   -21.7292 -21.7231 -21.6238 -21.6137 -21.4001 -21.3790 -20.6674 -20.6668
   -20.5715 -20.5577 -20.1454 -20.1337 -20.0294 -19.9538 -19.9436 -19.8785
   -19.8691 -19.7329 -19.6719 -19.6629 -19.4189 -19.4026 -19.2925 -19.2770
   -19.2299 -19.2103 -19.0800 -19.0701 -19.0039 -18.9915 -18.9217 -18.6732
   -18.0232 -18.0184 -17.9538 -17.7385 -17.7276 -17.3885 -17.3851 -17.2749
   -17.2730 -16.7832 -16.5994 -16.5889 -16.5116 -16.5079 -16.4577 -16.2648
   -16.2597 -16.2178 -16.1822 -16.1687 -16.0163 -16.0150 -15.9480 -15.7654
   -15.7642 -15.7571 -15.7562 -15.5328 -15.5164 -15.4717 -15.4414 -15.4402
   -15.4191 -15.4096 -15.0657 -14.7133 -14.7103 -14.5044 -14.5036 -14.4577
   -14.4500 -14.4471 -14.1917 -14.1899 -14.1883 -14.1853 -14.1637 -14.1392
   -13.7898 -13.7737 -13.7127 -13.6977 -13.0477 -12.9341 -12.9216 -12.9211
   -12.8796 -12.7086 -12.6593 -12.6557 -12.6068 -12.6066 -12.5771 -12.5755
   -12.5569 -12.5472 -12.5120 -12.5115 -12.4516 -12.2430 -12.2404 -12.2356
   -12.0875 -12.0626 -11.9166 -11.8875 -11.8722 -11.7785 -11.7745 -11.6996
   -11.6042 -11.5218 -11.5103 -11.4891 -11.4872 -11.4257 -11.3749 -11.3642
   -11.3298 -11.3283 -11.1990 -11.1886 -11.1885 -11.1581 -11.1127 -11.0634
   -11.0587 -11.0546 -10.9395 -10.6821 -10.5679 -10.4831 -10.4790 -10.4784
   -10.4643 -10.4606 -10.4598 -10.4455 -10.4081 -10.4071 -10.3624 -10.3347
   -10.3145 -10.2729 -10.2611 -10.0916 -10.0912  -9.9532  -9.9409  -9.9373
    -9.9290  -9.9250  -9.9180  -9.8365  -9.7422  -9.6474  -9.6248  -9.5490
    -9.5482  -9.4866  -9.4488  -9.4484  -9.4450  -9.4003  -9.1929  -9.1926
    -9.1282  -9.0605  -9.0604  -9.0459  -9.0428  -9.0296  -9.0008  -8.9697
    -8.9691  -8.8462  -8.7889  -8.7755  -8.7742  -8.7095  -8.7052  -8.5974
    -8.5487  -8.4861  -8.4854  -8.4761  -8.4034  -8.3458  -8.2858  -8.2112
    -8.1464  -8.0852  -8.0364  -8.0309  -7.9678  -7.9277  -7.8916  -7.7125
    -7.6733  -7.6655  -7.6610  -7.6523  -7.5872  -7.5869  -7.4816  -7.4800
    -7.4781  -7.4304  -7.4093  -7.3864  -7.3192  -7.2730  -7.2347  -6.8880
    -6.8871  -6.5899  -6.4066  -6.3996  -6.3982  -6.2615  -6.2196  -6.2180
    -6.2130  -6.1335  -6.0988  -6.0630  -5.9338  -5.9151  -5.8759  -5.8649
    -5.7659  -5.7172  -5.6831  -5.6540  -5.6037  -5.5844  -5.5205  -5.4732
    -5.4433  -5.4368  -5.4008  -5.3803  -5.2297  -5.2041  -4.9857  -4.9740
    -4.9419  -4.9310  -4.8224  -4.8123  -3.8936  -3.8039  -3.7410  -3.6990
    -3.4948  -3.4756  -2.2381  -2.2258  -1.3741  -1.3690  -1.0980  -1.0903
    -0.5843  -0.5254  -0.5151  -0.3293  -0.2427  -0.1841  -0.1552  -0.0481
    -0.0225  -0.0017   0.0148   0.0539   0.0649   0.1100   0.1215   0.2222
     0.2254   0.2985   0.3133   1.0754   1.0803   1.1417   1.1583   1.3285

          k =-0.5000 0.1444-0.3690 (266316 PWs)   bands (ev):

   -25.8272 -25.7909 -25.7761 -25.7215 -24.6019 -23.9515 -23.9448 -23.3305
   -22.8296 -22.8103 -22.8092 -22.7970 -22.7841 -22.7712 -22.7658 -22.7516
   -22.6696 -22.6617 -22.4301 -22.4194 -22.3490 -22.3400 -22.1893 -22.1226
   -22.1086 -21.9970 -21.9933 -21.8867 -21.8704 -21.8443 -21.6529 -21.6460
   -21.6148 -21.6109 -21.4677 -21.4573 -21.3924 -21.3887 -21.1519 -21.1488
   -20.8731 -20.8680 -20.5150 -20.5082 -20.3747 -20.3699 -20.0136 -19.8381
   -19.8313 -19.7274 -19.6368 -19.6321 -19.2809 -19.2719 -19.1609 -19.1567
   -19.0099 -18.9961 -18.9332 -18.6720 -18.6059 -18.6019 -18.2128 -18.2100
   -18.1867 -18.1846 -17.9638 -17.7409 -17.7388 -17.6824 -17.6753 -17.1299
   -17.1282 -17.1267 -17.1257 -16.9793 -16.9783 -16.7852 -16.4909 -16.4882
   -16.4534 -16.4315 -16.4232 -16.2101 -16.1749 -16.1611 -15.9847 -15.9826
   -15.9437 -15.5340 -15.5141 -15.5061 -15.5025 -15.4644 -15.0799 -15.0208
   -15.0172 -14.7574 -14.7560 -14.4497 -14.4399 -14.4298 -14.4013 -14.4009
   -14.1706 -14.1448 -14.0711 -14.0697 -14.0112 -14.0039 -13.8129 -13.8052
   -13.8035 -13.7936 -13.7864 -13.7783 -13.7243 -13.6900 -13.4678 -13.4628
   -13.0561 -12.9374 -12.8827 -12.7974 -12.7966 -12.7876 -12.7869 -12.6921
   -12.6731 -12.6720 -12.5202 -12.5197 -12.4242 -12.2716 -12.2492 -12.2477
   -12.1464 -12.0421 -11.9347 -11.8934 -11.8777 -11.7405 -11.6914 -11.6208
   -11.6204 -11.5010 -11.4946 -11.4168 -11.3839 -11.3833 -11.3738 -11.3504
   -11.3468 -11.2335 -11.0658 -11.0448 -11.0429 -10.7227 -10.6886 -10.6462
   -10.6406 -10.5678 -10.5467 -10.5457 -10.4994 -10.4658 -10.4396 -10.4301
   -10.4284 -10.3925 -10.3492 -10.3236 -10.3207 -10.3159 -10.2906 -10.2401
   -10.2386 -10.2230 -10.2229 -10.2005 -10.1806 -10.1781 -10.1587 -10.0974
   -10.0049  -9.9426  -9.9411  -9.9226  -9.9218  -9.8513  -9.8470  -9.8469
    -9.7665  -9.7290  -9.7224  -9.6711  -9.6552  -9.5790  -9.5515  -9.4592
    -9.4538  -9.4221  -9.3102  -9.2601  -9.0907  -9.0893  -9.0089  -8.9717
    -8.9248  -8.7762  -8.7585  -8.5793  -8.5617  -8.5603  -8.5395  -8.4657
    -8.4590  -8.3641  -8.3478  -8.3452  -8.3371  -8.2166  -8.2096  -8.1615
    -8.1592  -8.0792  -8.0505  -8.0373  -7.9112  -7.8665  -7.8244  -7.6806
    -7.6544  -7.6190  -7.4156  -7.4045  -7.4033  -7.3983  -7.3954  -7.3928
    -7.3552  -7.3190  -7.2878  -7.2649  -7.2488  -7.0226  -6.9902  -6.8602
    -6.8582  -6.7587  -6.7277  -6.5840  -6.5174  -6.5157  -6.4706  -6.4264
    -6.3165  -6.2752  -6.2732  -6.1764  -6.0517  -6.0180  -5.9902  -5.9400
    -5.9095  -5.8995  -5.7292  -5.7047  -5.6664  -5.6357  -5.6120  -5.5588
    -5.5421  -5.4202  -5.4090  -5.3735  -5.1082  -5.0971  -4.9981  -4.9741
    -4.5963  -4.5810  -4.2643  -4.2396  -3.9692  -3.8836  -3.8020  -3.7917
    -3.6611  -3.6080  -2.2393  -2.2275  -1.2343  -1.2231  -0.9834  -0.9577
    -0.8504  -0.8417  -0.6803  -0.6652  -0.5602  -0.4643  -0.4365  -0.2698
    -0.1797  -0.0371  -0.0024   0.1035   0.1100   0.2568   0.2697   0.4405
     0.4608   1.0921   1.1275   1.1313   1.1453   1.3163   1.3447   1.3702

          k =-0.5000-0.4331-0.3690 (266312 PWs)   bands (ev):

   -25.8273 -25.7911 -25.7760 -25.7218 -24.6022 -23.9516 -23.9446 -23.3276
   -22.8127 -22.8077 -22.7862 -22.7781 -22.7198 -22.7149 -22.6943 -22.6906
   -22.6349 -22.6303 -22.6257 -22.6245 -22.3021 -22.2896 -22.2838 -22.2751
   -22.1760 -22.0774 -22.0650 -21.8558 -21.6828 -21.6669 -21.6618 -21.6556
   -21.5485 -21.5394 -21.5385 -21.5327 -21.2707 -21.2700 -21.2646 -21.2637
   -20.8136 -20.8129 -20.8122 -20.8076 -20.0378 -19.9862 -19.9788 -19.9742
   -19.9527 -19.7235 -19.3097 -19.2951 -19.2355 -19.2252 -19.2020 -19.1995
   -19.0106 -19.0053 -18.9258 -18.6920 -18.6711 -18.6673 -18.6577 -18.6477
   -18.1644 -18.1639 -18.1513 -18.1499 -17.9607 -17.7388 -17.7353 -16.8961
   -16.8943 -16.8892 -16.8883 -16.7837 -16.4541 -16.3379 -16.3359 -16.3348
   -16.3308 -16.2265 -16.1973 -16.1805 -16.1765 -16.1624 -16.1586 -16.1562
   -15.9464 -15.5342 -15.5158 -15.4710 -15.4053 -15.4039 -15.4025 -15.4011
   -15.3990 -15.3965 -15.3930 -15.3921 -15.0791 -14.4280 -14.1681 -14.1473
   -13.8647 -13.8574 -13.8544 -13.8464 -13.8070 -13.7897 -13.7299 -13.6776
   -13.4736 -13.4734 -13.4703 -13.4698 -13.3775 -13.3766 -13.3743 -13.3732
   -13.2990 -13.2989 -13.2984 -13.2982 -13.0245 -12.9848 -12.8828 -12.6827
   -12.5699 -12.5695 -12.5657 -12.5656 -12.5397 -12.1810 -12.1269 -12.0492
   -11.9433 -11.9095 -11.8762 -11.8629 -11.6629 -11.6618 -11.6611 -11.6601
   -11.6591 -11.6571 -11.6560 -11.6538 -11.6331 -11.5193 -11.4894 -11.4143
   -11.0683 -10.9972 -10.9121 -10.8654 -10.8633 -10.8618 -10.8576 -10.8342
   -10.8328 -10.8295 -10.8290 -10.7775 -10.7269 -10.6558 -10.6421 -10.5368
   -10.5224 -10.4526 -10.4453 -10.4428 -10.4336 -10.4237 -10.4208 -10.3569
   -10.3545 -10.3023 -10.2704 -10.2262 -10.2180  -9.8702  -9.8662  -9.8648
    -9.8621  -9.7539  -9.7534  -9.7517  -9.7452  -9.7430  -9.7323  -9.7201
    -9.6920  -9.5558  -9.5553  -9.5528  -9.5525  -9.4153  -9.3203  -9.2794
    -9.2070  -9.1023  -9.1022  -9.0990  -9.0983  -9.0750  -8.9924  -8.9828
    -8.9825  -8.9762  -8.9759  -8.8501  -8.7971  -8.7780  -8.7280  -8.5905
    -8.5439  -8.3728  -8.2762  -8.2327  -8.2243  -8.2175  -8.2148  -8.2093
    -8.2073  -8.0650  -8.0352  -8.0279  -7.9873  -7.9868  -7.9855  -7.9843
    -7.9087  -7.8522  -7.6623  -7.6567  -7.4154  -7.3996  -7.2831  -7.2425
    -7.2148  -7.2086  -7.1180  -6.9093  -6.8934  -6.8662  -6.8496  -6.8474
    -6.8457  -6.8417  -6.8372  -6.5841  -6.4641  -6.4637  -6.4583  -6.4545
    -6.4374  -6.4213  -6.3780  -6.3744  -6.2109  -6.0732  -5.9236  -5.9167
    -5.8514  -5.8272  -5.6976  -5.6564  -5.6286  -5.6192  -5.5645  -5.5572
    -5.5040  -5.4338  -5.4035  -5.3788  -5.0245  -5.0034  -4.9858  -4.9726
    -4.3420  -4.3041  -4.2831  -4.2762  -4.0684  -4.0056  -4.0021  -4.0009
    -3.8008  -3.7491  -2.2393  -2.2273  -0.9591  -0.9317  -0.9298  -0.9257
    -0.6532  -0.6043  -0.5960  -0.5765  -0.5052  -0.4318  -0.3954  -0.3765
    -0.3628  -0.2496  -0.1564   0.0661   0.0991   0.1716   0.1802   0.1846
     0.1947   0.8991   0.9421   0.9460   0.9495   1.3277   1.3484   1.3890

          k =-0.1667 0.1444 0.3690 (266428 PWs)   bands (ev):

   -25.8276 -25.7914 -25.7760 -25.7214 -24.6022 -23.9510 -23.9451 -23.3316
   -22.8079 -22.7963 -22.7688 -22.7393 -22.7174 -22.6972 -22.6459 -22.6455
   -22.6225 -22.5372 -22.5026 -22.4794 -22.3917 -22.3600 -22.2938 -22.2753
   -22.1955 -22.1474 -22.0837 -22.0700 -21.9483 -21.9316 -21.8602 -21.8303
   -21.7944 -21.7552 -21.3998 -21.3278 -21.1860 -21.1519 -21.0216 -21.0118
   -20.6408 -20.6290 -20.5886 -20.4130 -20.1837 -20.1718 -20.0116 -19.8759
   -19.7287 -19.5332 -19.4767 -19.3422 -19.2937 -19.2845 -19.2801 -19.2123
   -19.1647 -19.1390 -19.0157 -18.9977 -18.9882 -18.9146 -18.8022 -18.6714
   -18.3014 -18.2977 -17.9570 -17.7368 -17.7271 -17.3132 -17.1876 -17.0120
   -16.9998 -16.9958 -16.8565 -16.8428 -16.7858 -16.7662 -16.4612 -16.4268
   -16.2526 -16.2268 -16.2112 -16.1787 -16.1665 -16.1361 -15.9537 -15.9336
   -15.8827 -15.5334 -15.5177 -15.4702 -15.3871 -15.3048 -15.2374 -15.1901
   -15.1859 -15.0964 -15.0635 -14.8892 -14.8672 -14.7750 -14.6838 -14.6416
   -14.4626 -14.1641 -14.1427 -14.0388 -13.8639 -13.7872 -13.7800 -13.7724
   -13.7270 -13.6988 -13.6820 -13.6226 -13.5499 -13.5480 -13.5072 -13.4524
   -13.1379 -12.9828 -12.9400 -12.8877 -12.8785 -12.7355 -12.6726 -12.5311
   -12.4930 -12.4345 -12.3067 -12.2980 -12.1636 -12.1224 -12.0814 -11.9731
   -11.9315 -11.9154 -11.8841 -11.8738 -11.8244 -11.7909 -11.7870 -11.7201
   -11.6899 -11.6617 -11.5194 -11.4994 -11.4770 -11.4262 -11.3972 -11.3505
   -11.3442 -11.3159 -11.1537 -11.1175 -11.0846 -11.0673 -11.0654 -10.9341
   -10.8536 -10.8336 -10.6764 -10.6003 -10.5472 -10.5287 -10.5206 -10.4931
   -10.4868 -10.4770 -10.4316 -10.3997 -10.3899 -10.3539 -10.3301 -10.3194
   -10.3181 -10.2794 -10.2382 -10.1277 -10.0660 -10.0240  -9.9830  -9.9393
    -9.8710  -9.8490  -9.8109  -9.7914  -9.7619  -9.7546  -9.7271  -9.7251
    -9.6531  -9.6170  -9.5691  -9.5339  -9.4380  -9.4335  -9.3805  -9.3732
    -9.3187  -9.3040  -9.2447  -9.2232  -9.2161  -9.0830  -8.9568  -8.9330
    -8.8900  -8.8575  -8.8212  -8.8050  -8.7941  -8.7139  -8.6147  -8.6058
    -8.5778  -8.5271  -8.3983  -8.3396  -8.2738  -8.1869  -8.1307  -8.1159
    -8.1009  -8.0803  -8.0333  -8.0233  -7.9235  -7.9047  -7.8420  -7.7742
    -7.7221  -7.6770  -7.6628  -7.6516  -7.5808  -7.4867  -7.4510  -7.4091
    -7.3955  -7.3242  -7.2853  -7.2166  -7.0627  -7.0439  -7.0215  -6.9424
    -6.7938  -6.7813  -6.6307  -6.5963  -6.5857  -6.5569  -6.3541  -6.2400
    -6.1967  -6.1108  -6.0605  -6.0549  -6.0086  -5.9958  -5.9236  -5.9174
    -5.8420  -5.8127  -5.7093  -5.6675  -5.6280  -5.5845  -5.5747  -5.5557
    -5.5197  -5.4081  -5.3167  -5.2679  -5.1302  -5.0779  -4.9679  -4.9402
    -4.9079  -4.8081  -4.6953  -4.5540  -4.2552  -4.1615  -3.8155  -3.8013
    -2.9902  -2.9587  -2.2448  -2.2233  -1.8427  -1.8002  -0.8414  -0.8205
    -0.5936  -0.5766  -0.5016  -0.4234  -0.4090  -0.3298  -0.3199  -0.2928
    -0.2678  -0.2012  -0.1143   0.0580   0.0849   0.1369   0.3974   0.4372
     0.7132   0.7610   0.8680   0.9805   1.1632   1.2530   1.3360   1.3429

     highest occupied, lowest unoccupied level (ev):    -0.9317   -1.0980

!    total energy              =   -1712.81625352 Ry
     Harris-Foulkes estimate   =   -1712.81625395 Ry
     estimated scf accuracy    <       0.00000059 Ry

     The total energy is the sum of the following terms:

     one-electron contribution =  -17101.45000212 Ry
     hartree contribution      =    8659.05267623 Ry
     xc contribution           =    -516.29574561 Ry
     ewald contribution        =    7223.55957294 Ry
     Hubbard energy            =      22.31724504 Ry

     convergence has been achieved in  83 iterations

     Writing output data file x0.scf.slg.gs.ex1.3k.save
 
     init_run     :     85.34s CPU     87.23s WALL (       1 calls)
     electrons    :  11903.49s CPU  12695.73s WALL (       1 calls)

     Called by init_run:
     wfcinit      :     80.87s CPU     82.54s WALL (       1 calls)
     potinit      :      2.06s CPU      2.17s WALL (       1 calls)

     Called by electrons:
     c_bands      :   8746.88s CPU   8942.32s WALL (      83 calls)
     sum_band     :   1075.74s CPU   1101.08s WALL (      83 calls)
     v_of_rho     :     14.22s CPU     20.11s WALL (      84 calls)
     mix_rho      :   2066.08s CPU   2631.44s WALL (      83 calls)

     Called by c_bands:
     init_us_2    :     13.80s CPU     14.26s WALL (     840 calls)
     cegterg      :   8693.81s CPU   8888.36s WALL (     415 calls)

     Called by sum_band:

     Called by *egterg:
     h_psi        :   6137.02s CPU   6226.22s WALL (    1543 calls)
     g_psi        :     15.33s CPU     15.41s WALL (    1123 calls)
     cdiaghg      :    679.49s CPU    702.15s WALL (    1538 calls)

     Called by h_psi:
     add_vuspsi   :    161.23s CPU    161.34s WALL (    1543 calls)
     vhpsi        :   2666.15s CPU   2668.44s WALL (    1543 calls)

     General routines
     calbec       :    876.50s CPU    877.44s WALL (    3506 calls)
     fft          :     10.66s CPU     16.12s WALL (     923 calls)
     ffts         :   1181.41s CPU   1699.50s WALL (  108154 calls)
     fftw         :   3339.21s CPU   3335.83s WALL (  695384 calls)
     davcio       :      0.12s CPU      4.83s WALL (      10 calls)
 
     Parallel routines
     fft_scatter  :   2200.03s CPU   2640.27s WALL (  804461 calls)

     Hubbard U routines
     new_ns       :    244.44s CPU    244.68s WALL (      83 calls)
     vhpsi        :   2666.15s CPU   2668.44s WALL (    1543 calls)
 
     PWSCF        :     3h19m CPU        3h33m WALL

 
   This run was terminated on:  23: 7:31   7Sep2019            

=------------------------------------------------------------------------------=
   JOB DONE.
=------------------------------------------------------------------------------=
