
     Program PWSCF v.5.2.0 starts on  6Sep2019 at  9:26:52 

     This program is part of the open-source Quantum ESPRESSO suite
     for quantum simulation of materials; please cite
         "P. Giannozzi et al., J. Phys.:Condens. Matter 21 395502 (2009);
          URL http://www.quantum-espresso.org", 
     in publications or presentations arising from this work. More details at
     http://www.quantum-espresso.org/quote

     Parallel version (MPI & OpenMP), running on     512 processor cores
     Number of MPI processes:                64
     Threads/MPI process:                     8
     R & G space division:  proc/nbgrp/npool/nimage =      64
     Waiting for input...
     Reading input from standard input

     Current dimensions of program PWSCF are:
     Max number of different atomic species (ntypx) = 10
     Max number of k-points (npk) =  40000
     Max angular momentum in pseudopotentials (lmaxx) =  3

     Subspace diagonalization in iterative solution of the eigenvalue problem:
     scalapack distributed-memory algorithm (size of sub-group:  5*  5 procs)

 
     Parallelization info
     --------------------
     sticks:   dense  smooth     PW     G-vecs:    dense   smooth      PW
     Min         267     267     69                33297    33297    4437
     Max         268     268     70                33304    33304    4446
     Sum       17139   17139   4479              2131249  2131249  284417
 


     bravais-lattice index     =            0
     lattice parameter (alat)  =      27.8924  a.u.
     unit-cell volume          =   33945.5266 (a.u.)^3
     number of atoms/cell      =          153
     number of atomic types    =            4
     number of electrons       =       580.00
     number of Kohn-Sham states=          320
     kinetic-energy cutoff     =      60.0000  Ry
     charge density cutoff     =     240.0000  Ry
     convergence threshold     =      1.0E-06
     mixing beta               =       0.7000
     number of iterations used =            8  local-TF  mixing
     Exchange-correlation      = SLA-PW-PBX-PBC ( 1  4  3  4 0 0)
     nstep                     =           50


     celldm(1)=  27.892358  celldm(2)=   0.000000  celldm(3)=   0.000000
     celldm(4)=   0.000000  celldm(5)=   0.000000  celldm(6)=   0.000000

     crystal axes: (cart. coord. in units of alat)
               a(1) = (   1.000000   0.000000   0.000000 )  
               a(2) = (   0.000000   1.154472   0.000000 )  
               a(3) = (   0.000000   0.000000   1.355014 )  

     reciprocal axes: (cart. coord. in units 2 pi/alat)
               b(1) = (  1.000000  0.000000  0.000000 )  
               b(2) = (  0.000000  0.866197  0.000000 )  
               b(3) = (  0.000000  0.000000  0.738000 )  


     PseudoPot. # 1 for Zn read from file:
     /home/sacss11/scratch/sacss11/hmah/jobs/g_znpc/pp/Zn.pbe-d-hgh.UPF
     MD5 check sum: 840b59d6b5d6b778dd7efd2cc31f93c9
     Pseudo is Norm-conserving, Zval = 12.0
     Generated in analytical, separable form
     Using radial grid of 1201 points,  6 beta functions with: 
                l(1) =   0
                l(2) =   0
                l(3) =   0
                l(4) =   1
                l(5) =   1
                l(6) =   2

     PseudoPot. # 2 for  N read from file:
     /home/sacss11/scratch/sacss11/hmah/jobs/g_znpc/pp/N.pbe-hgh.UPF
     MD5 check sum: 1504e9c56d21d37eacabc67df972de26
     Pseudo is Norm-conserving, Zval =  5.0
     Generated in analytical, separable form
     Using radial grid of 1085 points,  1 beta functions with: 
                l(1) =   0

     PseudoPot. # 3 for  C read from file:
     /home/sacss11/scratch/sacss11/hmah/jobs/g_znpc/pp/C.pbe-hgh.UPF
     MD5 check sum: ca26ff84b356733038fc2f5c468d1892
     Pseudo is Norm-conserving, Zval =  4.0
     Generated in analytical, separable form
     Using radial grid of 1073 points,  1 beta functions with: 
                l(1) =   0

     PseudoPot. # 4 for  H read from file:
     /home/sacss11/scratch/sacss11/hmah/jobs/g_znpc/pp/H.pbe-hgh.UPF
     MD5 check sum: 50ae4f52d34cf16cdfed4bce9c5a191e
     Pseudo is Norm-conserving, Zval =  1.0
     Generated in analytical, separable form
     Using radial grid of  929 points,  0 beta functions with: 

     atomic species   valence    mass     pseudopotential
        Zn            12.00    65.39000     Zn( 1.00)
        N              5.00    14.00674      N( 1.00)
        C              4.00    12.01070      C( 1.00)
        H              1.00     1.00794      H( 1.00)


     Simplified LDA+U calculation (l_max = 2) with parameters (eV):
     atomic species    L          U    alpha       J0     beta
        Zn             2     7.0000   0.0000   0.0000   0.0000
        N              1     5.5000   0.0000   0.0000   0.0000
        C              1     5.5000   0.0000   0.0000   0.0000



     No symmetry found



   Cartesian axes

     site n.     atom                  positions (alat units)
         1           C   tau(   1) = (   0.0005331  -0.0007680   0.1364003  )
         2           C   tau(   2) = (   0.0005436   0.0954696   0.1360866  )
         3           C   tau(   3) = (   0.1672339  -0.0007321   0.1361813  )
         4           C   tau(   4) = (   0.1672873   0.0954781   0.1356568  )
         5           C   tau(   5) = (   0.0839428   0.1435446   0.1357904  )
         6           C   tau(   6) = (   0.0839298   0.2397561   0.1352565  )
         7           C   tau(   7) = (   0.0005255   0.2878242   0.1350901  )
         8           C   tau(   8) = (   0.0005193   0.3840567   0.1348964  )
         9           C   tau(   9) = (   0.3338789  -0.0007065   0.1357297  )
        10           C   tau(  10) = (   0.3339076   0.0954758   0.1348015  )
        11           C   tau(  11) = (   0.2506178   0.1435506   0.1347453  )
        12           C   tau(  12) = (   0.2506076   0.2397326   0.1341436  )
        13           C   tau(  13) = (   0.1672827   0.2878289   0.1345674  )
        14           C   tau(  14) = (   0.1672493   0.3840391   0.1343189  )
        15           C   tau(  15) = (   0.0838999   0.4321317   0.1347100  )
        16           C   tau(  16) = (   0.0838939   0.5283346   0.1346159  )
        17           C   tau(  17) = (   0.0005101   0.5764320   0.1348991  )
        18           C   tau(  18) = (   0.0005077   0.6726500   0.1350798  )
        19           C   tau(  19) = (   0.5005339  -0.0007450   0.1358908  )
        20           C   tau(  20) = (   0.5005399   0.0954867   0.1350756  )
        21           C   tau(  21) = (   0.4172400   0.1435550   0.1343518  )
        22           C   tau(  22) = (   0.4172540   0.2397408   0.1335666  )
        23           C   tau(  23) = (   0.3338974   0.2878312   0.1334624  )
        24           C   tau(  24) = (   0.3338470   0.3840373   0.1331259  )
        25           C   tau(  25) = (   0.2505451   0.4321320   0.1336034  )
        26           C   tau(  26) = (   0.2505082   0.5283335   0.1335608  )
        27           C   tau(  27) = (   0.1671990   0.5764585   0.1340873  )
        28           C   tau(  28) = (   0.1671839   0.6726350   0.1343091  )
        29           C   tau(  29) = (   0.0838679   0.7207112   0.1349413  )
        30           C   tau(  30) = (   0.0838577   0.8169009   0.1355401  )
        31           C   tau(  31) = (   0.0004917   0.8649999   0.1360772  )
        32           C   tau(  32) = (   0.0005023   0.9612502   0.1364052  )
        33           C   tau(  33) = (   0.6671939  -0.0007528   0.1360137  )
        34           C   tau(  34) = (   0.6672206   0.0954699   0.1353345  )
        35           C   tau(  35) = (   0.5838930   0.1435778   0.1348154  )
        36           C   tau(  36) = (   0.5839045   0.2397493   0.1338422  )
        37           C   tau(  37) = (   0.5005594   0.2878189   0.1332753  )
        38           C   tau(  38) = (   0.5005408   0.3840386   0.1327039  )
        39           C   tau(  39) = (   0.4171912   0.4321336   0.1326660  )
        40           C   tau(  40) = (   0.4171577   0.5283411   0.1327197  )
        41           C   tau(  41) = (   0.3338005   0.5764616   0.1332221  )
        42           C   tau(  42) = (   0.3337951   0.6726402   0.1337623  )
        43           C   tau(  43) = (   0.2504849   0.7207113   0.1342760  )
        44           C   tau(  44) = (   0.2504969   0.8169133   0.1349804  )
        45           C   tau(  45) = (   0.1671898   0.8650031   0.1355600  )
        46           C   tau(  46) = (   0.1671899   0.9612418   0.1361323  )
        47           C   tau(  47) = (   0.0838683   1.0093578   0.1363979  )
        48           C   tau(  48) = (   0.0838947   1.1055897   0.1364320  )
        49           C   tau(  49) = (   0.8338446  -0.0007632   0.1361505  )
        50           C   tau(  50) = (   0.8338412   0.0954670   0.1355961  )
        51           C   tau(  51) = (   0.7505560   0.1435584   0.1349639  )
        52           C   tau(  52) = (   0.7505614   0.2397616   0.1341895  )
        53           C   tau(  53) = (   0.6672259   0.2878401   0.1336197  )
        54           C   tau(  54) = (   0.6672187   0.3840347   0.1331038  )
        55           C   tau(  55) = (   0.5838907   0.4321204   0.1326537  )
        56           C   tau(  56) = (   0.5838613   0.5283251   0.1326729  )
        57           C   tau(  57) = (   0.5004830   0.5764550   0.1327792  )
        58           C   tau(  58) = (   0.5004658   0.6726581   0.1334000  )
        59           C   tau(  59) = (   0.4171471   0.7207195   0.1339786  )
        60           C   tau(  60) = (   0.4171639   0.8168878   0.1349058  )
        61           C   tau(  61) = (   0.3338104   0.8649985   0.1353660  )
        62           C   tau(  62) = (   0.3338410   0.9612319   0.1360108  )
        63           C   tau(  63) = (   0.2505384   1.0093674   0.1362102  )
        64           C   tau(  64) = (   0.2505669   1.1056075   0.1361615  )
        65           C   tau(  65) = (   0.9172010   0.1435645   0.1355780  )
        66           C   tau(  66) = (   0.9171832   0.2397601   0.1349550  )
        67           C   tau(  67) = (   0.8338392   0.2878475   0.1342559  )
        68           C   tau(  68) = (   0.8338257   0.3840364   0.1340112  )
        69           C   tau(  69) = (   0.7505377   0.4321316   0.1334706  )
        70           C   tau(  70) = (   0.7505056   0.5283262   0.1335607  )
        71           C   tau(  71) = (   0.6671764   0.5764535   0.1331298  )
        72           C   tau(  72) = (   0.6671309   0.6726396   0.1335115  )
        73           C   tau(  73) = (   0.5838014   0.7207231   0.1336663  )
        74           C   tau(  74) = (   0.5838174   0.8169073   0.1344289  )
        75           C   tau(  75) = (   0.5004937   0.8649792   0.1351466  )
        76           C   tau(  76) = (   0.5005026   0.9612222   0.1359208  )
        77           C   tau(  77) = (   0.4171976   1.0093553   0.1361583  )
        78           C   tau(  78) = (   0.4172107   1.1055889   0.1360526  )
        79           C   tau(  79) = (   0.9171586   0.4321237   0.1345776  )
        80           C   tau(  80) = (   0.9171540   0.5283268   0.1346877  )
        81           C   tau(  81) = (   0.8337791   0.5764474   0.1343000  )
        82           C   tau(  82) = (   0.8337486   0.6726402   0.1345759  )
        83           C   tau(  83) = (   0.7504486   0.7207288   0.1341734  )
        84           C   tau(  84) = (   0.7504404   0.8169073   0.1347824  )
        85           C   tau(  85) = (   0.6671262   0.8649886   0.1348533  )
        86           C   tau(  86) = (   0.6671571   0.9611824   0.1357552  )
        87           C   tau(  87) = (   0.5838527   1.0093289   0.1360737  )
        88           C   tau(  88) = (   0.5838650   1.1055627   0.1361586  )
        89           C   tau(  89) = (   0.9171280   0.7207065   0.1352593  )
        90           C   tau(  90) = (   0.9171175   0.8169176   0.1357966  )
        91           C   tau(  91) = (   0.8337471   0.8649898   0.1356765  )
        92           C   tau(  92) = (   0.8338009   0.9612105   0.1361933  )
        93           C   tau(  93) = (   0.7504926   1.0093106   0.1361733  )
        94           C   tau(  94) = (   0.7505224   1.1055517   0.1362217  )
        95           C   tau(  95) = (   0.9171667   1.0093323   0.1364385  )
        96           C   tau(  96) = (   0.9171941   1.1055645   0.1364000  )
        97           C   tau(  97) = (   0.3922257   0.6535970   0.3703805  )
        98           C   tau(  98) = (   0.3053413   0.5322501   0.3706590  )
        99           C   tau(  99) = (   0.3005287   0.6850755   0.3706588  )
       100           C   tau( 100) = (   0.2461303   0.6089040   0.3707838  )
       101           C   tau( 101) = (   0.2634487   0.7693568   0.3707568  )
       102           C   tau( 102) = (   0.1544258   0.6164793   0.3710235  )
       103           C   tau( 103) = (   0.5474073   0.6785627   0.3708973  )
       104           C   tau( 104) = (   0.3299881   0.3766256   0.3713703  )
       105           C   tau( 105) = (   0.7002057   0.6827193   0.3723668  )
       106           C   tau( 106) = (   0.6243845   0.7375654   0.3720037  )
       107           C   tau( 107) = (   0.6681071   0.5911730   0.3712990  )
       108           C   tau( 108) = (   0.7846591   0.7193566   0.3734631  )
       109           C   tau( 109) = (   0.6325156   0.8292175   0.3726093  )
       110           C   tau( 110) = (   0.3739892   0.2303780   0.3718846  )
       111           C   tau( 111) = (   0.2980500   0.2850331   0.3722893  )
       112           C   tau( 112) = (   0.4508275   0.2893233   0.3709147  )
       113           C   tau( 113) = (   0.3661957   0.1387059   0.3723962  )
       114           C   tau( 114) = (   0.2137043   0.2481495   0.3733761  )
       115           C   tau( 115) = (   0.6927144   0.4358726   0.3705821  )
       116           C   tau( 116) = (   0.6975572   0.2832570   0.3706871  )
       117           C   tau( 117) = (   0.7520148   0.3593420   0.3708172  )
       118           C   tau( 118) = (   0.6058696   0.3147741   0.3703014  )
       119           C   tau( 119) = (   0.7345942   0.1990239   0.3708859  )
       120           C   tau( 120) = (   0.8437377   0.3520296   0.3711039  )
       121           C   tau( 121) = (   0.1178093   0.7009380   0.3706798  )
       122           C   tau( 122) = (   0.1716191   0.7764158   0.3705069  )
       123           C   tau( 123) = (   0.2816386   0.1022965   0.3731327  )
       124           C   tau( 124) = (   0.2063654   0.1563446   0.3736868  )
       125           C   tau( 125) = (   0.8802783   0.2675079   0.3708583  )
       126           C   tau( 126) = (   0.8264568   0.1920502   0.3707354  )
       127           C   tau( 127) = (   0.7172083   0.8654454   0.3733865  )
       128           C   tau( 128) = (   0.7923387   0.8111973   0.3738525  )
       129           Zn  tau( 129) = (   0.4978582   0.4840343   0.3690981  )
       130           N   tau( 130) = (   0.3907500   0.5628697   0.3703748  )
       131           N   tau( 131) = (   0.4636147   0.7045771   0.3704782  )
       132           N   tau( 132) = (   0.2796115   0.4483832   0.3710388  )
       133           N   tau( 133) = (   0.5774946   0.5929717   0.3705757  )
       134           N   tau( 134) = (   0.7188657   0.5196065   0.3709902  )
       135           N   tau( 135) = (   0.4205886   0.3747633   0.3707273  )
       136           N   tau( 136) = (   0.5346384   0.2635512   0.3704356  )
       137           N   tau( 137) = (   0.6071592   0.4055398   0.3702218  )
       138           H   tau( 138) = (   0.1544830   0.2915866   0.3741109  )
       139           H   tau( 139) = (   0.4263714   0.0965917   0.3723921  )
       140           H   tau( 140) = (   0.6914855   0.1395635   0.3710825  )
       141           H   tau( 141) = (   0.8855922   0.4124219   0.3713639  )
       142           H   tau( 142) = (   0.8437165   0.6757371   0.3740265  )
       143           H   tau( 143) = (   0.5724431   0.8715189   0.3725519  )
       144           H   tau( 144) = (   0.3066714   0.8287634   0.3709758  )
       145           H   tau( 145) = (   0.1124256   0.5562530   0.3713899  )
       146           H   tau( 146) = (   0.1398800   0.1251394   0.3744396  )
       147           H   tau( 147) = (   0.2737052   0.0292925   0.3732319  )
       148           H   tau( 148) = (   0.8576395   0.1255595   0.3703069  )
       149           H   tau( 149) = (   0.9532984   0.2597728   0.3706243  )
       150           H   tau( 150) = (   0.8588889   0.8422603   0.3745179  )
       151           H   tau( 151) = (   0.7253733   0.9384606   0.3734876  )
       152           H   tau( 152) = (   0.1403828   0.8428916   0.3699888  )
       153           H   tau( 153) = (   0.0447516   0.7086824   0.3704558  )

     number of k points=     5
                       cart. coord. in units 2pi/alat
        k(    1) = (   0.1666667   0.1443662  -0.3690000), wk =   0.4444444
        k(    2) = (   0.1666667  -0.4330986  -0.3690000), wk =   0.4444444
        k(    3) = (  -0.5000000   0.1443662  -0.3690000), wk =   0.4444444
        k(    4) = (  -0.5000000  -0.4330986  -0.3690000), wk =   0.2222222
        k(    5) = (  -0.1666667   0.1443662   0.3690000), wk =   0.4444444

     Dense  grid:  2131249 G-vectors     FFT dimensions: ( 144, 160, 192)

     Occupations read from input 

        2.0000   2.0000   2.0000   2.0000   2.0000   2.0000   2.0000   2.0000
        2.0000   2.0000   2.0000   2.0000   2.0000   2.0000   2.0000   2.0000
        2.0000   2.0000   2.0000   2.0000   2.0000   2.0000   2.0000   2.0000
        2.0000   2.0000   2.0000   2.0000   2.0000   2.0000   2.0000   2.0000
        2.0000   2.0000   2.0000   2.0000   2.0000   2.0000   2.0000   2.0000
        2.0000   2.0000   2.0000   2.0000   2.0000   2.0000   2.0000   2.0000
        2.0000   2.0000   2.0000   2.0000   2.0000   2.0000   2.0000   2.0000
        2.0000   2.0000   2.0000   2.0000   2.0000   2.0000   2.0000   2.0000
        2.0000   2.0000   2.0000   2.0000   2.0000   2.0000   2.0000   2.0000
        2.0000   2.0000   2.0000   2.0000   2.0000   2.0000   2.0000   2.0000
        2.0000   2.0000   2.0000   2.0000   2.0000   2.0000   2.0000   2.0000
        2.0000   2.0000   2.0000   2.0000   2.0000   2.0000   2.0000   2.0000
        2.0000   2.0000   2.0000   2.0000   2.0000   2.0000   2.0000   2.0000
        2.0000   2.0000   2.0000   2.0000   2.0000   2.0000   2.0000   2.0000
        2.0000   2.0000   2.0000   2.0000   2.0000   2.0000   2.0000   2.0000
        2.0000   2.0000   2.0000   2.0000   2.0000   2.0000   2.0000   2.0000
        2.0000   2.0000   2.0000   2.0000   2.0000   2.0000   2.0000   2.0000
        2.0000   2.0000   2.0000   2.0000   2.0000   2.0000   2.0000   2.0000
        2.0000   2.0000   2.0000   2.0000   2.0000   2.0000   2.0000   2.0000
        2.0000   2.0000   2.0000   2.0000   2.0000   2.0000   2.0000   2.0000
        2.0000   2.0000   2.0000   2.0000   2.0000   2.0000   2.0000   2.0000
        2.0000   2.0000   2.0000   2.0000   2.0000   2.0000   2.0000   2.0000
        2.0000   2.0000   2.0000   2.0000   2.0000   2.0000   2.0000   2.0000
        2.0000   2.0000   2.0000   2.0000   2.0000   2.0000   2.0000   2.0000
        2.0000   2.0000   2.0000   2.0000   2.0000   2.0000   2.0000   2.0000
        2.0000   2.0000   2.0000   2.0000   2.0000   2.0000   2.0000   2.0000
        2.0000   2.0000   2.0000   2.0000   2.0000   2.0000   2.0000   2.0000
        2.0000   2.0000   2.0000   2.0000   2.0000   2.0000   2.0000   2.0000
        2.0000   2.0000   2.0000   2.0000   2.0000   2.0000   2.0000   2.0000
        2.0000   2.0000   2.0000   2.0000   2.0000   2.0000   2.0000   2.0000
        2.0000   2.0000   2.0000   2.0000   2.0000   2.0000   2.0000   2.0000
        2.0000   2.0000   2.0000   2.0000   2.0000   2.0000   2.0000   2.0000
        2.0000   2.0000   2.0000   2.0000   2.0000   2.0000   2.0000   2.0000
        2.0000   2.0000   2.0000   2.0000   2.0000   2.0000   2.0000   2.0000
        2.0000   2.0000   2.0000   2.0000   2.0000   2.0000   2.0000   2.0000
        2.0000   2.0000   2.0000   2.0000   2.0000   2.0000   2.0000   2.0000
        2.0000   2.0000   0.0000   0.0000   0.0000   0.0000   0.0000   0.0000
        0.0000   0.0000   0.0000   0.0000   0.0000   0.0000   0.0000   0.0000
        0.0000   0.0000   0.0000   0.0000   0.0000   0.0000   0.0000   0.0000
        0.0000   0.0000   0.0000   0.0000   0.0000   0.0000   0.0000   0.0000

     Largest allocated arrays     est. size (Mb)     dimensions
        Kohn-Sham Wavefunctions        20.33 Mb     (    4164,  320)
        Atomic Hubbard wavefuncts      26.24 Mb     (    4164,  413)
        NL pseudopotentials             9.53 Mb     (    4164,  150)
        Each V/rho on FFT grid          1.05 Mb     (   69120)
        Each G-vector array             0.25 Mb     (   33304)
        G-vector shells                 0.13 Mb     (   16516)
     Largest temporary arrays     est. size (Mb)     dimensions
        Auxiliary wavefunctions        81.33 Mb     (    4164, 1280)
        Each subspace H/S matrix        1.00 Mb     (     256,  256)
        Each <psi_i|beta_j> matrix      0.73 Mb     (     150,  320)
        Arrays for rho mixing           8.44 Mb     (   69120,    8)

     Initial potential from superposition of free atoms
     Check: negative starting charge=   -0.410216

     starting charge  578.99444, renormalised to  580.00000

     negative rho (up, down):  4.109E-01 0.000E+00
     Number of +U iterations with fixed ns =  0
     Starting occupations:
 --- enter write_ns ---
 LDA+U parameters:
U( 1)     =  7.00000000
alpha( 1) =  0.00000000
U( 2)     =  5.50000000
alpha( 2) =  0.00000000
U( 3)     =  5.50000000
alpha( 3) =  0.00000000
atom    1   Tr[ns(na)] =   2.00000
    eigenvalues: 
  0.333  0.333  0.333
    eigenvectors:
  1.000  0.000  0.000
  0.000  1.000  0.000
  0.000  0.000  1.000
    occupations:
  0.333  0.000  0.000
  0.000  0.333  0.000
  0.000  0.000  0.333
atom    2   Tr[ns(na)] =   2.00000
    eigenvalues: 
  0.333  0.333  0.333
    eigenvectors:
  1.000  0.000  0.000
  0.000  1.000  0.000
  0.000  0.000  1.000
    occupations:
  0.333  0.000  0.000
  0.000  0.333  0.000
  0.000  0.000  0.333
atom    3   Tr[ns(na)] =   2.00000
    eigenvalues: 
  0.333  0.333  0.333
    eigenvectors:
  1.000  0.000  0.000
  0.000  1.000  0.000
  0.000  0.000  1.000
    occupations:
  0.333  0.000  0.000
  0.000  0.333  0.000
  0.000  0.000  0.333
atom    4   Tr[ns(na)] =   2.00000
    eigenvalues: 
  0.333  0.333  0.333
    eigenvectors:
  1.000  0.000  0.000
  0.000  1.000  0.000
  0.000  0.000  1.000
    occupations:
  0.333  0.000  0.000
  0.000  0.333  0.000
  0.000  0.000  0.333
atom    5   Tr[ns(na)] =   2.00000
    eigenvalues: 
  0.333  0.333  0.333
    eigenvectors:
  1.000  0.000  0.000
  0.000  1.000  0.000
  0.000  0.000  1.000
    occupations:
  0.333  0.000  0.000
  0.000  0.333  0.000
  0.000  0.000  0.333
atom    6   Tr[ns(na)] =   2.00000
    eigenvalues: 
  0.333  0.333  0.333
    eigenvectors:
  1.000  0.000  0.000
  0.000  1.000  0.000
  0.000  0.000  1.000
    occupations:
  0.333  0.000  0.000
  0.000  0.333  0.000
  0.000  0.000  0.333
atom    7   Tr[ns(na)] =   2.00000
    eigenvalues: 
  0.333  0.333  0.333
    eigenvectors:
  1.000  0.000  0.000
  0.000  1.000  0.000
  0.000  0.000  1.000
    occupations:
  0.333  0.000  0.000
  0.000  0.333  0.000
  0.000  0.000  0.333
atom    8   Tr[ns(na)] =   2.00000
    eigenvalues: 
  0.333  0.333  0.333
    eigenvectors:
  1.000  0.000  0.000
  0.000  1.000  0.000
  0.000  0.000  1.000
    occupations:
  0.333  0.000  0.000
  0.000  0.333  0.000
  0.000  0.000  0.333
atom    9   Tr[ns(na)] =   2.00000
    eigenvalues: 
  0.333  0.333  0.333
    eigenvectors:
  1.000  0.000  0.000
  0.000  1.000  0.000
  0.000  0.000  1.000
    occupations:
  0.333  0.000  0.000
  0.000  0.333  0.000
  0.000  0.000  0.333
atom   10   Tr[ns(na)] =   2.00000
    eigenvalues: 
  0.333  0.333  0.333
    eigenvectors:
  1.000  0.000  0.000
  0.000  1.000  0.000
  0.000  0.000  1.000
    occupations:
  0.333  0.000  0.000
  0.000  0.333  0.000
  0.000  0.000  0.333
atom   11   Tr[ns(na)] =   2.00000
    eigenvalues: 
  0.333  0.333  0.333
    eigenvectors:
  1.000  0.000  0.000
  0.000  1.000  0.000
  0.000  0.000  1.000
    occupations:
  0.333  0.000  0.000
  0.000  0.333  0.000
  0.000  0.000  0.333
atom   12   Tr[ns(na)] =   2.00000
    eigenvalues: 
  0.333  0.333  0.333
    eigenvectors:
  1.000  0.000  0.000
  0.000  1.000  0.000
  0.000  0.000  1.000
    occupations:
  0.333  0.000  0.000
  0.000  0.333  0.000
  0.000  0.000  0.333
atom   13   Tr[ns(na)] =   2.00000
    eigenvalues: 
  0.333  0.333  0.333
    eigenvectors:
  1.000  0.000  0.000
  0.000  1.000  0.000
  0.000  0.000  1.000
    occupations:
  0.333  0.000  0.000
  0.000  0.333  0.000
  0.000  0.000  0.333
atom   14   Tr[ns(na)] =   2.00000
    eigenvalues: 
  0.333  0.333  0.333
    eigenvectors:
  1.000  0.000  0.000
  0.000  1.000  0.000
  0.000  0.000  1.000
    occupations:
  0.333  0.000  0.000
  0.000  0.333  0.000
  0.000  0.000  0.333
atom   15   Tr[ns(na)] =   2.00000
    eigenvalues: 
  0.333  0.333  0.333
    eigenvectors:
  1.000  0.000  0.000
  0.000  1.000  0.000
  0.000  0.000  1.000
    occupations:
  0.333  0.000  0.000
  0.000  0.333  0.000
  0.000  0.000  0.333
atom   16   Tr[ns(na)] =   2.00000
    eigenvalues: 
  0.333  0.333  0.333
    eigenvectors:
  1.000  0.000  0.000
  0.000  1.000  0.000
  0.000  0.000  1.000
    occupations:
  0.333  0.000  0.000
  0.000  0.333  0.000
  0.000  0.000  0.333
atom   17   Tr[ns(na)] =   2.00000
    eigenvalues: 
  0.333  0.333  0.333
    eigenvectors:
  1.000  0.000  0.000
  0.000  1.000  0.000
  0.000  0.000  1.000
    occupations:
  0.333  0.000  0.000
  0.000  0.333  0.000
  0.000  0.000  0.333
atom   18   Tr[ns(na)] =   2.00000
    eigenvalues: 
  0.333  0.333  0.333
    eigenvectors:
  1.000  0.000  0.000
  0.000  1.000  0.000
  0.000  0.000  1.000
    occupations:
  0.333  0.000  0.000
  0.000  0.333  0.000
  0.000  0.000  0.333
atom   19   Tr[ns(na)] =   2.00000
    eigenvalues: 
  0.333  0.333  0.333
    eigenvectors:
  1.000  0.000  0.000
  0.000  1.000  0.000
  0.000  0.000  1.000
    occupations:
  0.333  0.000  0.000
  0.000  0.333  0.000
  0.000  0.000  0.333
atom   20   Tr[ns(na)] =   2.00000
    eigenvalues: 
  0.333  0.333  0.333
    eigenvectors:
  1.000  0.000  0.000
  0.000  1.000  0.000
  0.000  0.000  1.000
    occupations:
  0.333  0.000  0.000
  0.000  0.333  0.000
  0.000  0.000  0.333
atom   21   Tr[ns(na)] =   2.00000
    eigenvalues: 
  0.333  0.333  0.333
    eigenvectors:
  1.000  0.000  0.000
  0.000  1.000  0.000
  0.000  0.000  1.000
    occupations:
  0.333  0.000  0.000
  0.000  0.333  0.000
  0.000  0.000  0.333
atom   22   Tr[ns(na)] =   2.00000
    eigenvalues: 
  0.333  0.333  0.333
    eigenvectors:
  1.000  0.000  0.000
  0.000  1.000  0.000
  0.000  0.000  1.000
    occupations:
  0.333  0.000  0.000
  0.000  0.333  0.000
  0.000  0.000  0.333
atom   23   Tr[ns(na)] =   2.00000
    eigenvalues: 
  0.333  0.333  0.333
    eigenvectors:
  1.000  0.000  0.000
  0.000  1.000  0.000
  0.000  0.000  1.000
    occupations:
  0.333  0.000  0.000
  0.000  0.333  0.000
  0.000  0.000  0.333
atom   24   Tr[ns(na)] =   2.00000
    eigenvalues: 
  0.333  0.333  0.333
    eigenvectors:
  1.000  0.000  0.000
  0.000  1.000  0.000
  0.000  0.000  1.000
    occupations:
  0.333  0.000  0.000
  0.000  0.333  0.000
  0.000  0.000  0.333
atom   25   Tr[ns(na)] =   2.00000
    eigenvalues: 
  0.333  0.333  0.333
    eigenvectors:
  1.000  0.000  0.000
  0.000  1.000  0.000
  0.000  0.000  1.000
    occupations:
  0.333  0.000  0.000
  0.000  0.333  0.000
  0.000  0.000  0.333
atom   26   Tr[ns(na)] =   2.00000
    eigenvalues: 
  0.333  0.333  0.333
    eigenvectors:
  1.000  0.000  0.000
  0.000  1.000  0.000
  0.000  0.000  1.000
    occupations:
  0.333  0.000  0.000
  0.000  0.333  0.000
  0.000  0.000  0.333
atom   27   Tr[ns(na)] =   2.00000
    eigenvalues: 
  0.333  0.333  0.333
    eigenvectors:
  1.000  0.000  0.000
  0.000  1.000  0.000
  0.000  0.000  1.000
    occupations:
  0.333  0.000  0.000
  0.000  0.333  0.000
  0.000  0.000  0.333
atom   28   Tr[ns(na)] =   2.00000
    eigenvalues: 
  0.333  0.333  0.333
    eigenvectors:
  1.000  0.000  0.000
  0.000  1.000  0.000
  0.000  0.000  1.000
    occupations:
  0.333  0.000  0.000
  0.000  0.333  0.000
  0.000  0.000  0.333
atom   29   Tr[ns(na)] =   2.00000
    eigenvalues: 
  0.333  0.333  0.333
    eigenvectors:
  1.000  0.000  0.000
  0.000  1.000  0.000
  0.000  0.000  1.000
    occupations:
  0.333  0.000  0.000
  0.000  0.333  0.000
  0.000  0.000  0.333
atom   30   Tr[ns(na)] =   2.00000
    eigenvalues: 
  0.333  0.333  0.333
    eigenvectors:
  1.000  0.000  0.000
  0.000  1.000  0.000
  0.000  0.000  1.000
    occupations:
  0.333  0.000  0.000
  0.000  0.333  0.000
  0.000  0.000  0.333
atom   31   Tr[ns(na)] =   2.00000
    eigenvalues: 
  0.333  0.333  0.333
    eigenvectors:
  1.000  0.000  0.000
  0.000  1.000  0.000
  0.000  0.000  1.000
    occupations:
  0.333  0.000  0.000
  0.000  0.333  0.000
  0.000  0.000  0.333
atom   32   Tr[ns(na)] =   2.00000
    eigenvalues: 
  0.333  0.333  0.333
    eigenvectors:
  1.000  0.000  0.000
  0.000  1.000  0.000
  0.000  0.000  1.000
    occupations:
  0.333  0.000  0.000
  0.000  0.333  0.000
  0.000  0.000  0.333
atom   33   Tr[ns(na)] =   2.00000
    eigenvalues: 
  0.333  0.333  0.333
    eigenvectors:
  1.000  0.000  0.000
  0.000  1.000  0.000
  0.000  0.000  1.000
    occupations:
  0.333  0.000  0.000
  0.000  0.333  0.000
  0.000  0.000  0.333
atom   34   Tr[ns(na)] =   2.00000
    eigenvalues: 
  0.333  0.333  0.333
    eigenvectors:
  1.000  0.000  0.000
  0.000  1.000  0.000
  0.000  0.000  1.000
    occupations:
  0.333  0.000  0.000
  0.000  0.333  0.000
  0.000  0.000  0.333
atom   35   Tr[ns(na)] =   2.00000
    eigenvalues: 
  0.333  0.333  0.333
    eigenvectors:
  1.000  0.000  0.000
  0.000  1.000  0.000
  0.000  0.000  1.000
    occupations:
  0.333  0.000  0.000
  0.000  0.333  0.000
  0.000  0.000  0.333
atom   36   Tr[ns(na)] =   2.00000
    eigenvalues: 
  0.333  0.333  0.333
    eigenvectors:
  1.000  0.000  0.000
  0.000  1.000  0.000
  0.000  0.000  1.000
    occupations:
  0.333  0.000  0.000
  0.000  0.333  0.000
  0.000  0.000  0.333
atom   37   Tr[ns(na)] =   2.00000
    eigenvalues: 
  0.333  0.333  0.333
    eigenvectors:
  1.000  0.000  0.000
  0.000  1.000  0.000
  0.000  0.000  1.000
    occupations:
  0.333  0.000  0.000
  0.000  0.333  0.000
  0.000  0.000  0.333
atom   38   Tr[ns(na)] =   2.00000
    eigenvalues: 
  0.333  0.333  0.333
    eigenvectors:
  1.000  0.000  0.000
  0.000  1.000  0.000
  0.000  0.000  1.000
    occupations:
  0.333  0.000  0.000
  0.000  0.333  0.000
  0.000  0.000  0.333
atom   39   Tr[ns(na)] =   2.00000
    eigenvalues: 
  0.333  0.333  0.333
    eigenvectors:
  1.000  0.000  0.000
  0.000  1.000  0.000
  0.000  0.000  1.000
    occupations:
  0.333  0.000  0.000
  0.000  0.333  0.000
  0.000  0.000  0.333
atom   40   Tr[ns(na)] =   2.00000
    eigenvalues: 
  0.333  0.333  0.333
    eigenvectors:
  1.000  0.000  0.000
  0.000  1.000  0.000
  0.000  0.000  1.000
    occupations:
  0.333  0.000  0.000
  0.000  0.333  0.000
  0.000  0.000  0.333
atom   41   Tr[ns(na)] =   2.00000
    eigenvalues: 
  0.333  0.333  0.333
    eigenvectors:
  1.000  0.000  0.000
  0.000  1.000  0.000
  0.000  0.000  1.000
    occupations:
  0.333  0.000  0.000
  0.000  0.333  0.000
  0.000  0.000  0.333
atom   42   Tr[ns(na)] =   2.00000
    eigenvalues: 
  0.333  0.333  0.333
    eigenvectors:
  1.000  0.000  0.000
  0.000  1.000  0.000
  0.000  0.000  1.000
    occupations:
  0.333  0.000  0.000
  0.000  0.333  0.000
  0.000  0.000  0.333
atom   43   Tr[ns(na)] =   2.00000
    eigenvalues: 
  0.333  0.333  0.333
    eigenvectors:
  1.000  0.000  0.000
  0.000  1.000  0.000
  0.000  0.000  1.000
    occupations:
  0.333  0.000  0.000
  0.000  0.333  0.000
  0.000  0.000  0.333
atom   44   Tr[ns(na)] =   2.00000
    eigenvalues: 
  0.333  0.333  0.333
    eigenvectors:
  1.000  0.000  0.000
  0.000  1.000  0.000
  0.000  0.000  1.000
    occupations:
  0.333  0.000  0.000
  0.000  0.333  0.000
  0.000  0.000  0.333
atom   45   Tr[ns(na)] =   2.00000
    eigenvalues: 
  0.333  0.333  0.333
    eigenvectors:
  1.000  0.000  0.000
  0.000  1.000  0.000
  0.000  0.000  1.000
    occupations:
  0.333  0.000  0.000
  0.000  0.333  0.000
  0.000  0.000  0.333
atom   46   Tr[ns(na)] =   2.00000
    eigenvalues: 
  0.333  0.333  0.333
    eigenvectors:
  1.000  0.000  0.000
  0.000  1.000  0.000
  0.000  0.000  1.000
    occupations:
  0.333  0.000  0.000
  0.000  0.333  0.000
  0.000  0.000  0.333
atom   47   Tr[ns(na)] =   2.00000
    eigenvalues: 
  0.333  0.333  0.333
    eigenvectors:
  1.000  0.000  0.000
  0.000  1.000  0.000
  0.000  0.000  1.000
    occupations:
  0.333  0.000  0.000
  0.000  0.333  0.000
  0.000  0.000  0.333
atom   48   Tr[ns(na)] =   2.00000
    eigenvalues: 
  0.333  0.333  0.333
    eigenvectors:
  1.000  0.000  0.000
  0.000  1.000  0.000
  0.000  0.000  1.000
    occupations:
  0.333  0.000  0.000
  0.000  0.333  0.000
  0.000  0.000  0.333
atom   49   Tr[ns(na)] =   2.00000
    eigenvalues: 
  0.333  0.333  0.333
    eigenvectors:
  1.000  0.000  0.000
  0.000  1.000  0.000
  0.000  0.000  1.000
    occupations:
  0.333  0.000  0.000
  0.000  0.333  0.000
  0.000  0.000  0.333
atom   50   Tr[ns(na)] =   2.00000
    eigenvalues: 
  0.333  0.333  0.333
    eigenvectors:
  1.000  0.000  0.000
  0.000  1.000  0.000
  0.000  0.000  1.000
    occupations:
  0.333  0.000  0.000
  0.000  0.333  0.000
  0.000  0.000  0.333
atom   51   Tr[ns(na)] =   2.00000
    eigenvalues: 
  0.333  0.333  0.333
    eigenvectors:
  1.000  0.000  0.000
  0.000  1.000  0.000
  0.000  0.000  1.000
    occupations:
  0.333  0.000  0.000
  0.000  0.333  0.000
  0.000  0.000  0.333
atom   52   Tr[ns(na)] =   2.00000
    eigenvalues: 
  0.333  0.333  0.333
    eigenvectors:
  1.000  0.000  0.000
  0.000  1.000  0.000
  0.000  0.000  1.000
    occupations:
  0.333  0.000  0.000
  0.000  0.333  0.000
  0.000  0.000  0.333
atom   53   Tr[ns(na)] =   2.00000
    eigenvalues: 
  0.333  0.333  0.333
    eigenvectors:
  1.000  0.000  0.000
  0.000  1.000  0.000
  0.000  0.000  1.000
    occupations:
  0.333  0.000  0.000
  0.000  0.333  0.000
  0.000  0.000  0.333
atom   54   Tr[ns(na)] =   2.00000
    eigenvalues: 
  0.333  0.333  0.333
    eigenvectors:
  1.000  0.000  0.000
  0.000  1.000  0.000
  0.000  0.000  1.000
    occupations:
  0.333  0.000  0.000
  0.000  0.333  0.000
  0.000  0.000  0.333
atom   55   Tr[ns(na)] =   2.00000
    eigenvalues: 
  0.333  0.333  0.333
    eigenvectors:
  1.000  0.000  0.000
  0.000  1.000  0.000
  0.000  0.000  1.000
    occupations:
  0.333  0.000  0.000
  0.000  0.333  0.000
  0.000  0.000  0.333
atom   56   Tr[ns(na)] =   2.00000
    eigenvalues: 
  0.333  0.333  0.333
    eigenvectors:
  1.000  0.000  0.000
  0.000  1.000  0.000
  0.000  0.000  1.000
    occupations:
  0.333  0.000  0.000
  0.000  0.333  0.000
  0.000  0.000  0.333
atom   57   Tr[ns(na)] =   2.00000
    eigenvalues: 
  0.333  0.333  0.333
    eigenvectors:
  1.000  0.000  0.000
  0.000  1.000  0.000
  0.000  0.000  1.000
    occupations:
  0.333  0.000  0.000
  0.000  0.333  0.000
  0.000  0.000  0.333
atom   58   Tr[ns(na)] =   2.00000
    eigenvalues: 
  0.333  0.333  0.333
    eigenvectors:
  1.000  0.000  0.000
  0.000  1.000  0.000
  0.000  0.000  1.000
    occupations:
  0.333  0.000  0.000
  0.000  0.333  0.000
  0.000  0.000  0.333
atom   59   Tr[ns(na)] =   2.00000
    eigenvalues: 
  0.333  0.333  0.333
    eigenvectors:
  1.000  0.000  0.000
  0.000  1.000  0.000
  0.000  0.000  1.000
    occupations:
  0.333  0.000  0.000
  0.000  0.333  0.000
  0.000  0.000  0.333
atom   60   Tr[ns(na)] =   2.00000
    eigenvalues: 
  0.333  0.333  0.333
    eigenvectors:
  1.000  0.000  0.000
  0.000  1.000  0.000
  0.000  0.000  1.000
    occupations:
  0.333  0.000  0.000
  0.000  0.333  0.000
  0.000  0.000  0.333
atom   61   Tr[ns(na)] =   2.00000
    eigenvalues: 
  0.333  0.333  0.333
    eigenvectors:
  1.000  0.000  0.000
  0.000  1.000  0.000
  0.000  0.000  1.000
    occupations:
  0.333  0.000  0.000
  0.000  0.333  0.000
  0.000  0.000  0.333
atom   62   Tr[ns(na)] =   2.00000
    eigenvalues: 
  0.333  0.333  0.333
    eigenvectors:
  1.000  0.000  0.000
  0.000  1.000  0.000
  0.000  0.000  1.000
    occupations:
  0.333  0.000  0.000
  0.000  0.333  0.000
  0.000  0.000  0.333
atom   63   Tr[ns(na)] =   2.00000
    eigenvalues: 
  0.333  0.333  0.333
    eigenvectors:
  1.000  0.000  0.000
  0.000  1.000  0.000
  0.000  0.000  1.000
    occupations:
  0.333  0.000  0.000
  0.000  0.333  0.000
  0.000  0.000  0.333
atom   64   Tr[ns(na)] =   2.00000
    eigenvalues: 
  0.333  0.333  0.333
    eigenvectors:
  1.000  0.000  0.000
  0.000  1.000  0.000
  0.000  0.000  1.000
    occupations:
  0.333  0.000  0.000
  0.000  0.333  0.000
  0.000  0.000  0.333
atom   65   Tr[ns(na)] =   2.00000
    eigenvalues: 
  0.333  0.333  0.333
    eigenvectors:
  1.000  0.000  0.000
  0.000  1.000  0.000
  0.000  0.000  1.000
    occupations:
  0.333  0.000  0.000
  0.000  0.333  0.000
  0.000  0.000  0.333
atom   66   Tr[ns(na)] =   2.00000
    eigenvalues: 
  0.333  0.333  0.333
    eigenvectors:
  1.000  0.000  0.000
  0.000  1.000  0.000
  0.000  0.000  1.000
    occupations:
  0.333  0.000  0.000
  0.000  0.333  0.000
  0.000  0.000  0.333
atom   67   Tr[ns(na)] =   2.00000
    eigenvalues: 
  0.333  0.333  0.333
    eigenvectors:
  1.000  0.000  0.000
  0.000  1.000  0.000
  0.000  0.000  1.000
    occupations:
  0.333  0.000  0.000
  0.000  0.333  0.000
  0.000  0.000  0.333
atom   68   Tr[ns(na)] =   2.00000
    eigenvalues: 
  0.333  0.333  0.333
    eigenvectors:
  1.000  0.000  0.000
  0.000  1.000  0.000
  0.000  0.000  1.000
    occupations:
  0.333  0.000  0.000
  0.000  0.333  0.000
  0.000  0.000  0.333
atom   69   Tr[ns(na)] =   2.00000
    eigenvalues: 
  0.333  0.333  0.333
    eigenvectors:
  1.000  0.000  0.000
  0.000  1.000  0.000
  0.000  0.000  1.000
    occupations:
  0.333  0.000  0.000
  0.000  0.333  0.000
  0.000  0.000  0.333
atom   70   Tr[ns(na)] =   2.00000
    eigenvalues: 
  0.333  0.333  0.333
    eigenvectors:
  1.000  0.000  0.000
  0.000  1.000  0.000
  0.000  0.000  1.000
    occupations:
  0.333  0.000  0.000
  0.000  0.333  0.000
  0.000  0.000  0.333
atom   71   Tr[ns(na)] =   2.00000
    eigenvalues: 
  0.333  0.333  0.333
    eigenvectors:
  1.000  0.000  0.000
  0.000  1.000  0.000
  0.000  0.000  1.000
    occupations:
  0.333  0.000  0.000
  0.000  0.333  0.000
  0.000  0.000  0.333
atom   72   Tr[ns(na)] =   2.00000
    eigenvalues: 
  0.333  0.333  0.333
    eigenvectors:
  1.000  0.000  0.000
  0.000  1.000  0.000
  0.000  0.000  1.000
    occupations:
  0.333  0.000  0.000
  0.000  0.333  0.000
  0.000  0.000  0.333
atom   73   Tr[ns(na)] =   2.00000
    eigenvalues: 
  0.333  0.333  0.333
    eigenvectors:
  1.000  0.000  0.000
  0.000  1.000  0.000
  0.000  0.000  1.000
    occupations:
  0.333  0.000  0.000
  0.000  0.333  0.000
  0.000  0.000  0.333
atom   74   Tr[ns(na)] =   2.00000
    eigenvalues: 
  0.333  0.333  0.333
    eigenvectors:
  1.000  0.000  0.000
  0.000  1.000  0.000
  0.000  0.000  1.000
    occupations:
  0.333  0.000  0.000
  0.000  0.333  0.000
  0.000  0.000  0.333
atom   75   Tr[ns(na)] =   2.00000
    eigenvalues: 
  0.333  0.333  0.333
    eigenvectors:
  1.000  0.000  0.000
  0.000  1.000  0.000
  0.000  0.000  1.000
    occupations:
  0.333  0.000  0.000
  0.000  0.333  0.000
  0.000  0.000  0.333
atom   76   Tr[ns(na)] =   2.00000
    eigenvalues: 
  0.333  0.333  0.333
    eigenvectors:
  1.000  0.000  0.000
  0.000  1.000  0.000
  0.000  0.000  1.000
    occupations:
  0.333  0.000  0.000
  0.000  0.333  0.000
  0.000  0.000  0.333
atom   77   Tr[ns(na)] =   2.00000
    eigenvalues: 
  0.333  0.333  0.333
    eigenvectors:
  1.000  0.000  0.000
  0.000  1.000  0.000
  0.000  0.000  1.000
    occupations:
  0.333  0.000  0.000
  0.000  0.333  0.000
  0.000  0.000  0.333
atom   78   Tr[ns(na)] =   2.00000
    eigenvalues: 
  0.333  0.333  0.333
    eigenvectors:
  1.000  0.000  0.000
  0.000  1.000  0.000
  0.000  0.000  1.000
    occupations:
  0.333  0.000  0.000
  0.000  0.333  0.000
  0.000  0.000  0.333
atom   79   Tr[ns(na)] =   2.00000
    eigenvalues: 
  0.333  0.333  0.333
    eigenvectors:
  1.000  0.000  0.000
  0.000  1.000  0.000
  0.000  0.000  1.000
    occupations:
  0.333  0.000  0.000
  0.000  0.333  0.000
  0.000  0.000  0.333
atom   80   Tr[ns(na)] =   2.00000
    eigenvalues: 
  0.333  0.333  0.333
    eigenvectors:
  1.000  0.000  0.000
  0.000  1.000  0.000
  0.000  0.000  1.000
    occupations:
  0.333  0.000  0.000
  0.000  0.333  0.000
  0.000  0.000  0.333
atom   81   Tr[ns(na)] =   2.00000
    eigenvalues: 
  0.333  0.333  0.333
    eigenvectors:
  1.000  0.000  0.000
  0.000  1.000  0.000
  0.000  0.000  1.000
    occupations:
  0.333  0.000  0.000
  0.000  0.333  0.000
  0.000  0.000  0.333
atom   82   Tr[ns(na)] =   2.00000
    eigenvalues: 
  0.333  0.333  0.333
    eigenvectors:
  1.000  0.000  0.000
  0.000  1.000  0.000
  0.000  0.000  1.000
    occupations:
  0.333  0.000  0.000
  0.000  0.333  0.000
  0.000  0.000  0.333
atom   83   Tr[ns(na)] =   2.00000
    eigenvalues: 
  0.333  0.333  0.333
    eigenvectors:
  1.000  0.000  0.000
  0.000  1.000  0.000
  0.000  0.000  1.000
    occupations:
  0.333  0.000  0.000
  0.000  0.333  0.000
  0.000  0.000  0.333
atom   84   Tr[ns(na)] =   2.00000
    eigenvalues: 
  0.333  0.333  0.333
    eigenvectors:
  1.000  0.000  0.000
  0.000  1.000  0.000
  0.000  0.000  1.000
    occupations:
  0.333  0.000  0.000
  0.000  0.333  0.000
  0.000  0.000  0.333
atom   85   Tr[ns(na)] =   2.00000
    eigenvalues: 
  0.333  0.333  0.333
    eigenvectors:
  1.000  0.000  0.000
  0.000  1.000  0.000
  0.000  0.000  1.000
    occupations:
  0.333  0.000  0.000
  0.000  0.333  0.000
  0.000  0.000  0.333
atom   86   Tr[ns(na)] =   2.00000
    eigenvalues: 
  0.333  0.333  0.333
    eigenvectors:
  1.000  0.000  0.000
  0.000  1.000  0.000
  0.000  0.000  1.000
    occupations:
  0.333  0.000  0.000
  0.000  0.333  0.000
  0.000  0.000  0.333
atom   87   Tr[ns(na)] =   2.00000
    eigenvalues: 
  0.333  0.333  0.333
    eigenvectors:
  1.000  0.000  0.000
  0.000  1.000  0.000
  0.000  0.000  1.000
    occupations:
  0.333  0.000  0.000
  0.000  0.333  0.000
  0.000  0.000  0.333
atom   88   Tr[ns(na)] =   2.00000
    eigenvalues: 
  0.333  0.333  0.333
    eigenvectors:
  1.000  0.000  0.000
  0.000  1.000  0.000
  0.000  0.000  1.000
    occupations:
  0.333  0.000  0.000
  0.000  0.333  0.000
  0.000  0.000  0.333
atom   89   Tr[ns(na)] =   2.00000
    eigenvalues: 
  0.333  0.333  0.333
    eigenvectors:
  1.000  0.000  0.000
  0.000  1.000  0.000
  0.000  0.000  1.000
    occupations:
  0.333  0.000  0.000
  0.000  0.333  0.000
  0.000  0.000  0.333
atom   90   Tr[ns(na)] =   2.00000
    eigenvalues: 
  0.333  0.333  0.333
    eigenvectors:
  1.000  0.000  0.000
  0.000  1.000  0.000
  0.000  0.000  1.000
    occupations:
  0.333  0.000  0.000
  0.000  0.333  0.000
  0.000  0.000  0.333
atom   91   Tr[ns(na)] =   2.00000
    eigenvalues: 
  0.333  0.333  0.333
    eigenvectors:
  1.000  0.000  0.000
  0.000  1.000  0.000
  0.000  0.000  1.000
    occupations:
  0.333  0.000  0.000
  0.000  0.333  0.000
  0.000  0.000  0.333
atom   92   Tr[ns(na)] =   2.00000
    eigenvalues: 
  0.333  0.333  0.333
    eigenvectors:
  1.000  0.000  0.000
  0.000  1.000  0.000
  0.000  0.000  1.000
    occupations:
  0.333  0.000  0.000
  0.000  0.333  0.000
  0.000  0.000  0.333
atom   93   Tr[ns(na)] =   2.00000
    eigenvalues: 
  0.333  0.333  0.333
    eigenvectors:
  1.000  0.000  0.000
  0.000  1.000  0.000
  0.000  0.000  1.000
    occupations:
  0.333  0.000  0.000
  0.000  0.333  0.000
  0.000  0.000  0.333
atom   94   Tr[ns(na)] =   2.00000
    eigenvalues: 
  0.333  0.333  0.333
    eigenvectors:
  1.000  0.000  0.000
  0.000  1.000  0.000
  0.000  0.000  1.000
    occupations:
  0.333  0.000  0.000
  0.000  0.333  0.000
  0.000  0.000  0.333
atom   95   Tr[ns(na)] =   2.00000
    eigenvalues: 
  0.333  0.333  0.333
    eigenvectors:
  1.000  0.000  0.000
  0.000  1.000  0.000
  0.000  0.000  1.000
    occupations:
  0.333  0.000  0.000
  0.000  0.333  0.000
  0.000  0.000  0.333
atom   96   Tr[ns(na)] =   2.00000
    eigenvalues: 
  0.333  0.333  0.333
    eigenvectors:
  1.000  0.000  0.000
  0.000  1.000  0.000
  0.000  0.000  1.000
    occupations:
  0.333  0.000  0.000
  0.000  0.333  0.000
  0.000  0.000  0.333
atom   97   Tr[ns(na)] =   2.00000
    eigenvalues: 
  0.333  0.333  0.333
    eigenvectors:
  1.000  0.000  0.000
  0.000  1.000  0.000
  0.000  0.000  1.000
    occupations:
  0.333  0.000  0.000
  0.000  0.333  0.000
  0.000  0.000  0.333
atom   98   Tr[ns(na)] =   2.00000
    eigenvalues: 
  0.333  0.333  0.333
    eigenvectors:
  1.000  0.000  0.000
  0.000  1.000  0.000
  0.000  0.000  1.000
    occupations:
  0.333  0.000  0.000
  0.000  0.333  0.000
  0.000  0.000  0.333
atom   99   Tr[ns(na)] =   2.00000
    eigenvalues: 
  0.333  0.333  0.333
    eigenvectors:
  1.000  0.000  0.000
  0.000  1.000  0.000
  0.000  0.000  1.000
    occupations:
  0.333  0.000  0.000
  0.000  0.333  0.000
  0.000  0.000  0.333
atom  100   Tr[ns(na)] =   2.00000
    eigenvalues: 
  0.333  0.333  0.333
    eigenvectors:
  1.000  0.000  0.000
  0.000  1.000  0.000
  0.000  0.000  1.000
    occupations:
  0.333  0.000  0.000
  0.000  0.333  0.000
  0.000  0.000  0.333
atom  101   Tr[ns(na)] =   2.00000
    eigenvalues: 
  0.333  0.333  0.333
    eigenvectors:
  1.000  0.000  0.000
  0.000  1.000  0.000
  0.000  0.000  1.000
    occupations:
  0.333  0.000  0.000
  0.000  0.333  0.000
  0.000  0.000  0.333
atom  102   Tr[ns(na)] =   2.00000
    eigenvalues: 
  0.333  0.333  0.333
    eigenvectors:
  1.000  0.000  0.000
  0.000  1.000  0.000
  0.000  0.000  1.000
    occupations:
  0.333  0.000  0.000
  0.000  0.333  0.000
  0.000  0.000  0.333
atom  103   Tr[ns(na)] =   2.00000
    eigenvalues: 
  0.333  0.333  0.333
    eigenvectors:
  1.000  0.000  0.000
  0.000  1.000  0.000
  0.000  0.000  1.000
    occupations:
  0.333  0.000  0.000
  0.000  0.333  0.000
  0.000  0.000  0.333
atom  104   Tr[ns(na)] =   2.00000
    eigenvalues: 
  0.333  0.333  0.333
    eigenvectors:
  1.000  0.000  0.000
  0.000  1.000  0.000
  0.000  0.000  1.000
    occupations:
  0.333  0.000  0.000
  0.000  0.333  0.000
  0.000  0.000  0.333
atom  105   Tr[ns(na)] =   2.00000
    eigenvalues: 
  0.333  0.333  0.333
    eigenvectors:
  1.000  0.000  0.000
  0.000  1.000  0.000
  0.000  0.000  1.000
    occupations:
  0.333  0.000  0.000
  0.000  0.333  0.000
  0.000  0.000  0.333
atom  106   Tr[ns(na)] =   2.00000
    eigenvalues: 
  0.333  0.333  0.333
    eigenvectors:
  1.000  0.000  0.000
  0.000  1.000  0.000
  0.000  0.000  1.000
    occupations:
  0.333  0.000  0.000
  0.000  0.333  0.000
  0.000  0.000  0.333
atom  107   Tr[ns(na)] =   2.00000
    eigenvalues: 
  0.333  0.333  0.333
    eigenvectors:
  1.000  0.000  0.000
  0.000  1.000  0.000
  0.000  0.000  1.000
    occupations:
  0.333  0.000  0.000
  0.000  0.333  0.000
  0.000  0.000  0.333
atom  108   Tr[ns(na)] =   2.00000
    eigenvalues: 
  0.333  0.333  0.333
    eigenvectors:
  1.000  0.000  0.000
  0.000  1.000  0.000
  0.000  0.000  1.000
    occupations:
  0.333  0.000  0.000
  0.000  0.333  0.000
  0.000  0.000  0.333
atom  109   Tr[ns(na)] =   2.00000
    eigenvalues: 
  0.333  0.333  0.333
    eigenvectors:
  1.000  0.000  0.000
  0.000  1.000  0.000
  0.000  0.000  1.000
    occupations:
  0.333  0.000  0.000
  0.000  0.333  0.000
  0.000  0.000  0.333
atom  110   Tr[ns(na)] =   2.00000
    eigenvalues: 
  0.333  0.333  0.333
    eigenvectors:
  1.000  0.000  0.000
  0.000  1.000  0.000
  0.000  0.000  1.000
    occupations:
  0.333  0.000  0.000
  0.000  0.333  0.000
  0.000  0.000  0.333
atom  111   Tr[ns(na)] =   2.00000
    eigenvalues: 
  0.333  0.333  0.333
    eigenvectors:
  1.000  0.000  0.000
  0.000  1.000  0.000
  0.000  0.000  1.000
    occupations:
  0.333  0.000  0.000
  0.000  0.333  0.000
  0.000  0.000  0.333
atom  112   Tr[ns(na)] =   2.00000
    eigenvalues: 
  0.333  0.333  0.333
    eigenvectors:
  1.000  0.000  0.000
  0.000  1.000  0.000
  0.000  0.000  1.000
    occupations:
  0.333  0.000  0.000
  0.000  0.333  0.000
  0.000  0.000  0.333
atom  113   Tr[ns(na)] =   2.00000
    eigenvalues: 
  0.333  0.333  0.333
    eigenvectors:
  1.000  0.000  0.000
  0.000  1.000  0.000
  0.000  0.000  1.000
    occupations:
  0.333  0.000  0.000
  0.000  0.333  0.000
  0.000  0.000  0.333
atom  114   Tr[ns(na)] =   2.00000
    eigenvalues: 
  0.333  0.333  0.333
    eigenvectors:
  1.000  0.000  0.000
  0.000  1.000  0.000
  0.000  0.000  1.000
    occupations:
  0.333  0.000  0.000
  0.000  0.333  0.000
  0.000  0.000  0.333
atom  115   Tr[ns(na)] =   2.00000
    eigenvalues: 
  0.333  0.333  0.333
    eigenvectors:
  1.000  0.000  0.000
  0.000  1.000  0.000
  0.000  0.000  1.000
    occupations:
  0.333  0.000  0.000
  0.000  0.333  0.000
  0.000  0.000  0.333
atom  116   Tr[ns(na)] =   2.00000
    eigenvalues: 
  0.333  0.333  0.333
    eigenvectors:
  1.000  0.000  0.000
  0.000  1.000  0.000
  0.000  0.000  1.000
    occupations:
  0.333  0.000  0.000
  0.000  0.333  0.000
  0.000  0.000  0.333
atom  117   Tr[ns(na)] =   2.00000
    eigenvalues: 
  0.333  0.333  0.333
    eigenvectors:
  1.000  0.000  0.000
  0.000  1.000  0.000
  0.000  0.000  1.000
    occupations:
  0.333  0.000  0.000
  0.000  0.333  0.000
  0.000  0.000  0.333
atom  118   Tr[ns(na)] =   2.00000
    eigenvalues: 
  0.333  0.333  0.333
    eigenvectors:
  1.000  0.000  0.000
  0.000  1.000  0.000
  0.000  0.000  1.000
    occupations:
  0.333  0.000  0.000
  0.000  0.333  0.000
  0.000  0.000  0.333
atom  119   Tr[ns(na)] =   2.00000
    eigenvalues: 
  0.333  0.333  0.333
    eigenvectors:
  1.000  0.000  0.000
  0.000  1.000  0.000
  0.000  0.000  1.000
    occupations:
  0.333  0.000  0.000
  0.000  0.333  0.000
  0.000  0.000  0.333
atom  120   Tr[ns(na)] =   2.00000
    eigenvalues: 
  0.333  0.333  0.333
    eigenvectors:
  1.000  0.000  0.000
  0.000  1.000  0.000
  0.000  0.000  1.000
    occupations:
  0.333  0.000  0.000
  0.000  0.333  0.000
  0.000  0.000  0.333
atom  121   Tr[ns(na)] =   2.00000
    eigenvalues: 
  0.333  0.333  0.333
    eigenvectors:
  1.000  0.000  0.000
  0.000  1.000  0.000
  0.000  0.000  1.000
    occupations:
  0.333  0.000  0.000
  0.000  0.333  0.000
  0.000  0.000  0.333
atom  122   Tr[ns(na)] =   2.00000
    eigenvalues: 
  0.333  0.333  0.333
    eigenvectors:
  1.000  0.000  0.000
  0.000  1.000  0.000
  0.000  0.000  1.000
    occupations:
  0.333  0.000  0.000
  0.000  0.333  0.000
  0.000  0.000  0.333
atom  123   Tr[ns(na)] =   2.00000
    eigenvalues: 
  0.333  0.333  0.333
    eigenvectors:
  1.000  0.000  0.000
  0.000  1.000  0.000
  0.000  0.000  1.000
    occupations:
  0.333  0.000  0.000
  0.000  0.333  0.000
  0.000  0.000  0.333
atom  124   Tr[ns(na)] =   2.00000
    eigenvalues: 
  0.333  0.333  0.333
    eigenvectors:
  1.000  0.000  0.000
  0.000  1.000  0.000
  0.000  0.000  1.000
    occupations:
  0.333  0.000  0.000
  0.000  0.333  0.000
  0.000  0.000  0.333
atom  125   Tr[ns(na)] =   2.00000
    eigenvalues: 
  0.333  0.333  0.333
    eigenvectors:
  1.000  0.000  0.000
  0.000  1.000  0.000
  0.000  0.000  1.000
    occupations:
  0.333  0.000  0.000
  0.000  0.333  0.000
  0.000  0.000  0.333
atom  126   Tr[ns(na)] =   2.00000
    eigenvalues: 
  0.333  0.333  0.333
    eigenvectors:
  1.000  0.000  0.000
  0.000  1.000  0.000
  0.000  0.000  1.000
    occupations:
  0.333  0.000  0.000
  0.000  0.333  0.000
  0.000  0.000  0.333
atom  127   Tr[ns(na)] =   2.00000
    eigenvalues: 
  0.333  0.333  0.333
    eigenvectors:
  1.000  0.000  0.000
  0.000  1.000  0.000
  0.000  0.000  1.000
    occupations:
  0.333  0.000  0.000
  0.000  0.333  0.000
  0.000  0.000  0.333
atom  128   Tr[ns(na)] =   2.00000
    eigenvalues: 
  0.333  0.333  0.333
    eigenvectors:
  1.000  0.000  0.000
  0.000  1.000  0.000
  0.000  0.000  1.000
    occupations:
  0.333  0.000  0.000
  0.000  0.333  0.000
  0.000  0.000  0.333
atom  129   Tr[ns(na)] =  10.00000
    eigenvalues: 
  1.000  1.000  1.000  1.000  1.000
    eigenvectors:
  1.000  0.000  0.000  0.000  0.000
  0.000  1.000  0.000  0.000  0.000
  0.000  0.000  1.000  0.000  0.000
  0.000  0.000  0.000  1.000  0.000
  0.000  0.000  0.000  0.000  1.000
    occupations:
  1.000  0.000  0.000  0.000  0.000
  0.000  1.000  0.000  0.000  0.000
  0.000  0.000  1.000  0.000  0.000
  0.000  0.000  0.000  1.000  0.000
  0.000  0.000  0.000  0.000  1.000
atom  130   Tr[ns(na)] =   3.00000
    eigenvalues: 
  0.500  0.500  0.500
    eigenvectors:
  1.000  0.000  0.000
  0.000  1.000  0.000
  0.000  0.000  1.000
    occupations:
  0.500  0.000  0.000
  0.000  0.500  0.000
  0.000  0.000  0.500
atom  131   Tr[ns(na)] =   3.00000
    eigenvalues: 
  0.500  0.500  0.500
    eigenvectors:
  1.000  0.000  0.000
  0.000  1.000  0.000
  0.000  0.000  1.000
    occupations:
  0.500  0.000  0.000
  0.000  0.500  0.000
  0.000  0.000  0.500
atom  132   Tr[ns(na)] =   3.00000
    eigenvalues: 
  0.500  0.500  0.500
    eigenvectors:
  1.000  0.000  0.000
  0.000  1.000  0.000
  0.000  0.000  1.000
    occupations:
  0.500  0.000  0.000
  0.000  0.500  0.000
  0.000  0.000  0.500
atom  133   Tr[ns(na)] =   3.00000
    eigenvalues: 
  0.500  0.500  0.500
    eigenvectors:
  1.000  0.000  0.000
  0.000  1.000  0.000
  0.000  0.000  1.000
    occupations:
  0.500  0.000  0.000
  0.000  0.500  0.000
  0.000  0.000  0.500
atom  134   Tr[ns(na)] =   3.00000
    eigenvalues: 
  0.500  0.500  0.500
    eigenvectors:
  1.000  0.000  0.000
  0.000  1.000  0.000
  0.000  0.000  1.000
    occupations:
  0.500  0.000  0.000
  0.000  0.500  0.000
  0.000  0.000  0.500
atom  135   Tr[ns(na)] =   3.00000
    eigenvalues: 
  0.500  0.500  0.500
    eigenvectors:
  1.000  0.000  0.000
  0.000  1.000  0.000
  0.000  0.000  1.000
    occupations:
  0.500  0.000  0.000
  0.000  0.500  0.000
  0.000  0.000  0.500
atom  136   Tr[ns(na)] =   3.00000
    eigenvalues: 
  0.500  0.500  0.500
    eigenvectors:
  1.000  0.000  0.000
  0.000  1.000  0.000
  0.000  0.000  1.000
    occupations:
  0.500  0.000  0.000
  0.000  0.500  0.000
  0.000  0.000  0.500
atom  137   Tr[ns(na)] =   3.00000
    eigenvalues: 
  0.500  0.500  0.500
    eigenvectors:
  1.000  0.000  0.000
  0.000  1.000  0.000
  0.000  0.000  1.000
    occupations:
  0.500  0.000  0.000
  0.000  0.500  0.000
  0.000  0.000  0.500
N of occupied +U levels =  290.000000
 --- exit write_ns ---
 Atomic wfc used for LDA+U Projector are NOT orthogonalized
     Starting wfc are  569 randomized atomic wfcs

     total cpu time spent up to now is       49.8 secs

     per-process dynamical memory:   410.4 Mb

     Self-consistent Calculation

     iteration #  1     ecut=    60.00 Ry     beta=0.70
     Davidson diagonalization with overlap
     ethr =  1.00E-02,  avg # of iterations =  3.0
 --- enter write_ns ---
 LDA+U parameters:
U( 1)     =  7.00000000
alpha( 1) =  0.00000000
U( 2)     =  5.50000000
alpha( 2) =  0.00000000
U( 3)     =  5.50000000
alpha( 3) =  0.00000000
atom    1   Tr[ns(na)] =   4.79354
    eigenvalues: 
  0.711  0.843  0.843
    eigenvectors:
  1.000  0.000  0.000
  0.000  0.005  0.995
  0.000  0.995  0.005
    occupations:
  0.711 -0.000  0.000
 -0.000  0.843  0.000
  0.000  0.000  0.843
atom    2   Tr[ns(na)] =   4.79907
    eigenvalues: 
  0.714  0.842  0.843
    eigenvectors:
  1.000  0.000  0.000
  0.000  0.993  0.007
  0.000  0.007  0.993
    occupations:
  0.714 -0.000  0.000
 -0.000  0.842 -0.000
  0.000 -0.000  0.843
atom    3   Tr[ns(na)] =   4.79713
    eigenvalues: 
  0.713  0.842  0.844
    eigenvectors:
  1.000  0.000  0.000
  0.000  0.243  0.757
  0.000  0.757  0.243
    occupations:
  0.713 -0.000  0.000
 -0.000  0.843  0.001
  0.000  0.001  0.843
atom    4   Tr[ns(na)] =   4.80634
    eigenvalues: 
  0.717  0.842  0.844
    eigenvectors:
  1.000  0.000  0.000
  0.000  0.912  0.088
  0.000  0.088  0.912
    occupations:
  0.717  0.000  0.000
  0.000  0.842 -0.000
  0.000 -0.000  0.844
atom    5   Tr[ns(na)] =   4.79766
    eigenvalues: 
  0.713  0.842  0.844
    eigenvectors:
  1.000  0.000  0.000
  0.000  0.031  0.969
  0.000  0.969  0.031
    occupations:
  0.713 -0.000  0.000
 -0.000  0.844  0.000
  0.000  0.000  0.842
atom    6   Tr[ns(na)] =   4.80647
    eigenvalues: 
  0.717  0.842  0.844
    eigenvectors:
  1.000  0.000  0.000
  0.000  0.839  0.161
  0.000  0.161  0.838
    occupations:
  0.717 -0.000  0.001
 -0.000  0.842 -0.001
  0.001 -0.001  0.844
atom    7   Tr[ns(na)] =   4.80061
    eigenvalues: 
  0.714  0.842  0.844
    eigenvectors:
  1.000  0.000  0.000
  0.000  0.000  1.000
  0.000  1.000  0.000
    occupations:
  0.714  0.000  0.000
  0.000  0.844  0.000
  0.000  0.000  0.842
atom    8   Tr[ns(na)] =   4.80645
    eigenvalues: 
  0.717  0.843  0.843
    eigenvectors:
  1.000  0.000  0.000
  0.000  0.997  0.003
  0.000  0.003  0.997
    occupations:
  0.717  0.000  0.001
  0.000  0.843  0.000
  0.001  0.000  0.843
atom    9   Tr[ns(na)] =   4.80216
    eigenvalues: 
  0.715  0.842  0.844
    eigenvectors:
  1.000  0.000  0.000
  0.000  0.116  0.884
  0.000  0.884  0.116
    occupations:
  0.715  0.000  0.001
  0.000  0.844  0.000
  0.001  0.000  0.843
atom   10   Tr[ns(na)] =   4.81316
    eigenvalues: 
  0.720  0.842  0.845
    eigenvectors:
  1.000  0.000  0.000
  0.000  0.946  0.054
  0.000  0.054  0.946
    occupations:
  0.720  0.000  0.000
  0.000  0.842 -0.001
  0.000 -0.001  0.845
atom   11   Tr[ns(na)] =   4.81220
    eigenvalues: 
  0.719  0.842  0.845
    eigenvectors:
  1.000  0.000  0.000
  0.000  0.058  0.942
  0.000  0.942  0.058
    occupations:
  0.719  0.000  0.001
  0.000  0.845  0.001
  0.001  0.001  0.842
atom   12   Tr[ns(na)] =   4.82376
    eigenvalues: 
  0.725  0.841  0.846
    eigenvectors:
  1.000  0.000  0.000
  0.000  0.871  0.129
  0.000  0.129  0.871
    occupations:
  0.725  0.001  0.001
  0.001  0.842 -0.002
  0.001 -0.002  0.845
atom   13   Tr[ns(na)] =   4.81150
    eigenvalues: 
  0.719  0.842  0.845
    eigenvectors:
  1.000  0.000  0.000
  0.000  0.160  0.840
  0.000  0.840  0.160
    occupations:
  0.719  0.000  0.001
  0.000  0.844  0.001
  0.001  0.001  0.842
atom   14   Tr[ns(na)] =   4.81679
    eigenvalues: 
  0.722  0.841  0.845
    eigenvectors:
  1.000  0.000  0.000
  0.000  0.705  0.295
  0.000  0.295  0.705
    occupations:
  0.722  0.000  0.001
  0.000  0.842 -0.002
  0.001 -0.002  0.844
atom   15   Tr[ns(na)] =   4.80502
    eigenvalues: 
  0.717  0.842  0.844
    eigenvectors:
  1.000  0.000  0.000
  0.000  0.369  0.631
  0.000  0.631  0.369
    occupations:
  0.717  0.000 -0.000
  0.000  0.843  0.001
 -0.000  0.001  0.843
atom   16   Tr[ns(na)] =   4.80758
    eigenvalues: 
  0.718  0.842  0.844
    eigenvectors:
  1.000  0.000  0.000
  0.000  0.410  0.590
  0.000  0.590  0.410
    occupations:
  0.718  0.000 -0.000
  0.000  0.843 -0.001
 -0.000 -0.001  0.843
atom   17   Tr[ns(na)] =   4.80630
    eigenvalues: 
  0.717  0.842  0.843
    eigenvectors:
  1.000  0.000  0.000
  0.000  0.969  0.031
  0.000  0.031  0.969
    occupations:
  0.717 -0.000 -0.001
 -0.000  0.843  0.000
 -0.001  0.000  0.843
atom   18   Tr[ns(na)] =   4.80122
    eigenvalues: 
  0.714  0.842  0.844
    eigenvectors:
  1.000  0.000  0.000
  0.000  0.000  1.000
  0.000  1.000  0.000
    occupations:
  0.714 -0.000 -0.000
 -0.000  0.844 -0.000
 -0.000 -0.000  0.842
atom   19   Tr[ns(na)] =   4.80096
    eigenvalues: 
  0.715  0.842  0.844
    eigenvectors:
  1.000  0.000  0.000
  0.000  0.002  0.998
  0.000  0.998  0.002
    occupations:
  0.715  0.000  0.001
  0.000  0.844 -0.000
  0.001 -0.000  0.842
atom   20   Tr[ns(na)] =   4.80991
    eigenvalues: 
  0.719  0.842  0.845
    eigenvectors:
  1.000  0.000  0.000
  0.000  1.000  0.000
  0.000  0.000  1.000
    occupations:
  0.719  0.000  0.001
  0.000  0.842 -0.000
  0.001 -0.000  0.845
atom   21   Tr[ns(na)] =   4.81961
    eigenvalues: 
  0.723  0.841  0.846
    eigenvectors:
  1.000  0.000  0.000
  0.000  0.014  0.986
  0.000  0.986  0.014
    occupations:
  0.723  0.000  0.001
  0.000  0.846  0.001
  0.001  0.001  0.841
atom   22   Tr[ns(na)] =   4.84066
    eigenvalues: 
  0.732  0.841  0.847
    eigenvectors:
  1.000  0.000  0.000
  0.000  0.978  0.022
  0.000  0.022  0.978
    occupations:
  0.732  0.000  0.000
  0.000  0.841 -0.001
  0.000 -0.001  0.847
atom   23   Tr[ns(na)] =   4.83887
    eigenvalues: 
  0.731  0.841  0.847
    eigenvectors:
  1.000  0.000  0.000
  0.000  0.101  0.899
  0.000  0.899  0.101
    occupations:
  0.731 -0.000  0.000
 -0.000  0.847  0.002
  0.000  0.002  0.841
atom   24   Tr[ns(na)] =   4.86006
    eigenvalues: 
  0.741  0.841  0.848
    eigenvectors:
  1.000  0.000  0.000
  0.000  0.770  0.230
  0.000  0.230  0.770
    occupations:
  0.741  0.000  0.000
  0.000  0.842 -0.003
  0.000 -0.003  0.846
atom   25   Tr[ns(na)] =   4.83858
    eigenvalues: 
  0.731  0.841  0.847
    eigenvectors:
  1.000  0.000  0.000
  0.000  0.407  0.593
  0.000  0.593  0.407
    occupations:
  0.731 -0.000 -0.000
 -0.000  0.844  0.003
 -0.000  0.003  0.843
atom   26   Tr[ns(na)] =   4.84101
    eigenvalues: 
  0.733  0.841  0.847
    eigenvectors:
  1.000  0.000  0.000
  0.000  0.432  0.568
  0.000  0.568  0.432
    occupations:
  0.733 -0.000 -0.000
 -0.000  0.844 -0.003
 -0.000 -0.003  0.844
atom   27   Tr[ns(na)] =   4.82280
    eigenvalues: 
  0.725  0.841  0.845
    eigenvectors:
  1.000  0.000  0.000
  0.000  0.703  0.297
  0.000  0.296  0.703
    occupations:
  0.725  0.000 -0.001
  0.000  0.843  0.002
 -0.001  0.002  0.844
atom   28   Tr[ns(na)] =   4.81754
    eigenvalues: 
  0.721  0.842  0.846
    eigenvectors:
  1.000  0.000  0.000
  0.000  0.198  0.802
  0.000  0.802  0.198
    occupations:
  0.721  0.000 -0.000
  0.000  0.845 -0.001
 -0.000 -0.001  0.843
atom   29   Tr[ns(na)] =   4.81290
    eigenvalues: 
  0.720  0.842  0.844
    eigenvectors:
  1.000  0.000  0.000
  0.000  0.886  0.114
  0.000  0.114  0.886
    occupations:
  0.720 -0.000 -0.001
 -0.000  0.842  0.001
 -0.001  0.001  0.844
atom   30   Tr[ns(na)] =   4.80066
    eigenvalues: 
  0.714  0.842  0.844
    eigenvectors:
  1.000  0.000  0.000
  0.000  0.068  0.932
  0.000  0.932  0.068
    occupations:
  0.714 -0.000 -0.000
 -0.000  0.844 -0.000
 -0.000 -0.000  0.842
atom   31   Tr[ns(na)] =   4.79909
    eigenvalues: 
  0.714  0.842  0.843
    eigenvectors:
  1.000  0.000  0.000
  0.000  0.999  0.001
  0.000  0.001  0.999
    occupations:
  0.714  0.000 -0.000
  0.000  0.842 -0.000
 -0.000 -0.000  0.843
atom   32   Tr[ns(na)] =   4.79386
    eigenvalues: 
  0.711  0.842  0.843
    eigenvectors:
  1.000  0.000  0.000
  0.000  0.000  1.000
  0.000  1.000  0.000
    occupations:
  0.711  0.000 -0.000
  0.000  0.843 -0.000
 -0.000 -0.000  0.842
atom   33   Tr[ns(na)] =   4.79844
    eigenvalues: 
  0.714  0.842  0.843
    eigenvectors:
  1.000  0.000  0.000
  0.000  0.077  0.923
  0.000  0.923  0.077
    occupations:
  0.714 -0.000  0.001
 -0.000  0.843 -0.000
  0.001 -0.000  0.842
atom   34   Tr[ns(na)] =   4.80661
    eigenvalues: 
  0.717  0.841  0.845
    eigenvectors:
  1.000  0.000  0.000
  0.000  0.927  0.073
  0.000  0.073  0.927
    occupations:
  0.717 -0.000  0.000
 -0.000  0.842  0.001
  0.000  0.001  0.844
atom   35   Tr[ns(na)] =   4.81413
    eigenvalues: 
  0.721  0.841  0.845
    eigenvectors:
  1.000  0.000  0.000
  0.000  0.013  0.987
  0.000  0.987  0.013
    occupations:
  0.721 -0.000  0.001
 -0.000  0.845 -0.001
  0.001 -0.001  0.841
atom   36   Tr[ns(na)] =   4.83817
    eigenvalues: 
  0.731  0.841  0.847
    eigenvectors:
  1.000  0.000  0.000
  0.000  0.966  0.034
  0.000  0.034  0.966
    occupations:
  0.731 -0.000  0.000
 -0.000  0.841  0.001
  0.000  0.001  0.847
atom   37   Tr[ns(na)] =   4.85586
    eigenvalues: 
  0.739  0.840  0.848
    eigenvectors:
  1.000  0.000  0.000
  0.000  0.000  1.000
  0.000  1.000  0.000
    occupations:
  0.739 -0.000  0.000
 -0.000  0.848 -0.000
  0.000 -0.000  0.840
atom   38   Tr[ns(na)] =   4.90871
    eigenvalues: 
  0.763  0.842  0.849
    eigenvectors:
  1.000  0.000  0.000
  0.000  1.000  0.000
  0.000  0.000  1.000
    occupations:
  0.763  0.000 -0.001
  0.000  0.842  0.000
 -0.001  0.000  0.849
atom   39   Tr[ns(na)] =   4.91044
    eigenvalues: 
  0.763  0.843  0.849
    eigenvectors:
  1.000  0.000  0.000
  0.000  0.226  0.774
  0.000  0.774  0.226
    occupations:
  0.763 -0.001 -0.001
 -0.001  0.848  0.003
 -0.001  0.003  0.844
atom   40   Tr[ns(na)] =   4.91368
    eigenvalues: 
  0.765  0.843  0.849
    eigenvectors:
  1.000  0.000  0.000
  0.000  0.256  0.744
  0.000  0.744  0.256
    occupations:
  0.765 -0.001  0.001
 -0.001  0.848 -0.003
  0.001 -0.003  0.844
atom   41   Tr[ns(na)] =   4.86278
    eigenvalues: 
  0.742  0.841  0.848
    eigenvectors:
  1.000  0.000  0.000
  0.000  0.757  0.243
  0.000  0.243  0.757
    occupations:
  0.742  0.001 -0.001
  0.001  0.843  0.003
 -0.001  0.003  0.846
atom   42   Tr[ns(na)] =   4.84218
    eigenvalues: 
  0.733  0.841  0.848
    eigenvectors:
  1.000  0.000  0.000
  0.000  0.109  0.891
  0.000  0.891  0.109
    occupations:
  0.733 -0.000 -0.000
 -0.000  0.847 -0.002
 -0.000 -0.002  0.841
atom   43   Tr[ns(na)] =   4.82530
    eigenvalues: 
  0.725  0.841  0.846
    eigenvectors:
  1.000  0.000  0.000
  0.000  0.860  0.140
  0.000  0.140  0.860
    occupations:
  0.725  0.000 -0.001
  0.000  0.842  0.002
 -0.001  0.002  0.845
atom   44   Tr[ns(na)] =   4.81097
    eigenvalues: 
  0.719  0.842  0.845
    eigenvectors:
  1.000  0.000  0.000
  0.000  0.071  0.929
  0.000  0.929  0.071
    occupations:
  0.719  0.000 -0.000
  0.000  0.845 -0.001
 -0.000 -0.001  0.842
atom   45   Tr[ns(na)] =   4.80612
    eigenvalues: 
  0.717  0.842  0.844
    eigenvectors:
  1.000  0.000  0.000
  0.000  0.925  0.075
  0.000  0.075  0.925
    occupations:
  0.717  0.000  0.000
  0.000  0.842  0.001
  0.000  0.001  0.844
atom   46   Tr[ns(na)] =   4.79538
    eigenvalues: 
  0.712  0.842  0.843
    eigenvectors:
  1.000  0.000  0.000
  0.000  0.175  0.825
  0.000  0.825  0.175
    occupations:
  0.712  0.000 -0.000
  0.000  0.843 -0.000
 -0.000 -0.000  0.843
atom   47   Tr[ns(na)] =   4.79579
    eigenvalues: 
  0.712  0.843  0.843
    eigenvectors:
  1.000  0.000  0.000
  0.000  0.874  0.126
  0.000  0.126  0.874
    occupations:
  0.712  0.000 -0.000
  0.000  0.843  0.000
 -0.000  0.000  0.843
atom   48   Tr[ns(na)] =   4.79496
    eigenvalues: 
  0.712  0.843  0.843
    eigenvectors:
  1.000  0.000  0.000
  0.000  0.935  0.065
  0.000  0.065  0.935
    occupations:
  0.712  0.000 -0.000
  0.000  0.843 -0.000
 -0.000 -0.000  0.843
atom   49   Tr[ns(na)] =   4.79504
    eigenvalues: 
  0.712  0.842  0.843
    eigenvectors:
  1.000  0.000  0.000
  0.000  0.189  0.811
  0.000  0.811  0.189
    occupations:
  0.712 -0.000  0.000
 -0.000  0.843 -0.000
  0.000 -0.000  0.843
atom   50   Tr[ns(na)] =   4.80553
    eigenvalues: 
  0.717  0.842  0.844
    eigenvectors:
  1.000  0.000  0.000
  0.000  0.939  0.061
  0.000  0.061  0.939
    occupations:
  0.717 -0.000 -0.000
 -0.000  0.842  0.000
 -0.000  0.000  0.844
atom   51   Tr[ns(na)] =   4.80972
    eigenvalues: 
  0.718  0.842  0.845
    eigenvectors:
  1.000  0.000  0.000
  0.000  0.076  0.924
  0.000  0.924  0.076
    occupations:
  0.718 -0.000  0.000
 -0.000  0.845 -0.001
  0.000 -0.001  0.842
atom   52   Tr[ns(na)] =   4.82379
    eigenvalues: 
  0.725  0.841  0.846
    eigenvectors:
  1.000  0.000  0.000
  0.000  0.859  0.141
  0.000  0.141  0.859
    occupations:
  0.725 -0.001  0.001
 -0.001  0.842  0.002
  0.001  0.002  0.845
atom   53   Tr[ns(na)] =   4.83908
    eigenvalues: 
  0.732  0.841  0.847
    eigenvectors:
  1.000  0.000  0.000
  0.000  0.107  0.893
  0.000  0.893  0.107
    occupations:
  0.732  0.000  0.000
  0.000  0.847 -0.002
  0.000 -0.002  0.841
atom   54   Tr[ns(na)] =   4.85930
    eigenvalues: 
  0.741  0.841  0.848
    eigenvectors:
  1.000  0.000  0.000
  0.000  0.765  0.235
  0.000  0.235  0.765
    occupations:
  0.741 -0.001  0.001
 -0.001  0.843  0.003
  0.001  0.003  0.846
atom   55   Tr[ns(na)] =   4.90968
    eigenvalues: 
  0.763  0.842  0.850
    eigenvectors:
  1.000  0.000  0.000
  0.000  0.241  0.759
  0.000  0.759  0.241
    occupations:
  0.763  0.001 -0.001
  0.001  0.848 -0.003
 -0.001 -0.003  0.844
atom   56   Tr[ns(na)] =   4.90961
    eigenvalues: 
  0.763  0.842  0.849
    eigenvectors:
  1.000  0.000  0.000
  0.000  0.267  0.733
  0.000  0.733  0.267
    occupations:
  0.763  0.001  0.001
  0.001  0.848  0.003
  0.001  0.003  0.844
atom   57   Tr[ns(na)] =   4.91221
    eigenvalues: 
  0.764  0.843  0.849
    eigenvectors:
  1.000  0.000  0.000
  0.000  1.000  0.000
  0.000  0.000  1.000
    occupations:
  0.764  0.000  0.001
  0.000  0.843 -0.000
  0.001 -0.000  0.849
atom   58   Tr[ns(na)] =   4.85944
    eigenvalues: 
  0.741  0.841  0.848
    eigenvectors:
  1.000  0.000  0.000
  0.000  0.000  1.000
  0.000  1.000  0.000
    occupations:
  0.741  0.000 -0.001
  0.000  0.848  0.000
 -0.001  0.000  0.841
atom   59   Tr[ns(na)] =   4.84146
    eigenvalues: 
  0.733  0.841  0.847
    eigenvectors:
  1.000  0.000  0.000
  0.000  0.971  0.029
  0.000  0.029  0.971
    occupations:
  0.733  0.000 -0.000
  0.000  0.841  0.001
 -0.000  0.001  0.847
atom   60   Tr[ns(na)] =   4.81525
    eigenvalues: 
  0.721  0.841  0.846
    eigenvectors:
  1.000  0.000  0.000
  0.000  0.009  0.991
  0.000  0.991  0.009
    occupations:
  0.721  0.000 -0.000
  0.000  0.846 -0.000
 -0.000 -0.000  0.841
atom   61   Tr[ns(na)] =   4.80752
    eigenvalues: 
  0.718  0.841  0.845
    eigenvectors:
  1.000  0.000  0.000
  0.000  0.927  0.073
  0.000  0.073  0.927
    occupations:
  0.718  0.000 -0.000
  0.000  0.842  0.001
 -0.000  0.001  0.844
atom   62   Tr[ns(na)] =   4.79898
    eigenvalues: 
  0.714  0.842  0.844
    eigenvectors:
  1.000  0.000  0.000
  0.000  0.065  0.935
  0.000  0.935  0.065
    occupations:
  0.714  0.000 -0.001
  0.000  0.843 -0.000
 -0.001 -0.000  0.842
atom   63   Tr[ns(na)] =   4.79731
    eigenvalues: 
  0.713  0.842  0.843
    eigenvectors:
  1.000  0.000  0.000
  0.000  0.829  0.171
  0.000  0.171  0.829
    occupations:
  0.713  0.000  0.000
  0.000  0.842  0.000
  0.000  0.000  0.843
atom   64   Tr[ns(na)] =   4.79844
    eigenvalues: 
  0.713  0.842  0.843
    eigenvectors:
  1.000  0.000  0.000
  0.000  0.898  0.102
  0.000  0.102  0.898
    occupations:
  0.713  0.000 -0.000
  0.000  0.843 -0.000
 -0.000 -0.000  0.843
atom   65   Tr[ns(na)] =   4.79971
    eigenvalues: 
  0.714  0.842  0.844
    eigenvectors:
  1.000  0.000  0.000
  0.000  0.077  0.923
  0.000  0.923  0.077
    occupations:
  0.714  0.000  0.000
  0.000  0.844 -0.000
  0.000 -0.000  0.842
atom   66   Tr[ns(na)] =   4.81173
    eigenvalues: 
  0.719  0.842  0.844
    eigenvectors:
  1.000  0.000  0.000
  0.000  0.895  0.105
  0.000  0.105  0.895
    occupations:
  0.719  0.000  0.001
  0.000  0.842  0.001
  0.001  0.001  0.844
atom   67   Tr[ns(na)] =   4.81633
    eigenvalues: 
  0.721  0.842  0.845
    eigenvectors:
  1.000  0.000  0.000
  0.000  0.179  0.821
  0.000  0.821  0.179
    occupations:
  0.721 -0.000  0.000
 -0.000  0.845 -0.001
  0.000 -0.001  0.843
atom   68   Tr[ns(na)] =   4.82230
    eigenvalues: 
  0.724  0.842  0.845
    eigenvectors:
  1.000  0.000  0.000
  0.000  0.700  0.300
  0.000  0.300  0.700
    occupations:
  0.724 -0.000  0.001
 -0.000  0.843  0.002
  0.001  0.002  0.844
atom   69   Tr[ns(na)] =   4.83958
    eigenvalues: 
  0.732  0.841  0.847
    eigenvectors:
  1.000  0.000  0.000
  0.000  0.408  0.592
  0.000  0.592  0.408
    occupations:
  0.732  0.000  0.000
  0.000  0.845 -0.003
  0.000 -0.003  0.843
atom   70   Tr[ns(na)] =   4.83702
    eigenvalues: 
  0.731  0.841  0.847
    eigenvectors:
  1.000  0.000  0.000
  0.000  0.434  0.566
  0.000  0.566  0.434
    occupations:
  0.731  0.000  0.000
  0.000  0.844  0.003
  0.000  0.003  0.843
atom   71   Tr[ns(na)] =   4.85908
    eigenvalues: 
  0.741  0.841  0.848
    eigenvectors:
  1.000  0.000  0.000
  0.000  0.756  0.244
  0.000  0.244  0.756
    occupations:
  0.741 -0.000 -0.000
 -0.000  0.842 -0.003
 -0.000 -0.003  0.846
atom   72   Tr[ns(na)] =   4.83999
    eigenvalues: 
  0.732  0.841  0.847
    eigenvectors:
  1.000  0.000  0.000
  0.000  0.112  0.888
  0.000  0.888  0.112
    occupations:
  0.732  0.000 -0.000
  0.000  0.847  0.002
 -0.000  0.002  0.842
atom   73   Tr[ns(na)] =   4.84250
    eigenvalues: 
  0.733  0.841  0.847
    eigenvectors:
  1.000  0.000  0.000
  0.000  0.971  0.029
  0.000  0.029  0.971
    occupations:
  0.733 -0.000 -0.000
 -0.000  0.841 -0.001
 -0.000 -0.001  0.847
atom   74   Tr[ns(na)] =   4.82040
    eigenvalues: 
  0.723  0.841  0.846
    eigenvectors:
  1.000  0.000  0.000
  0.000  0.019  0.981
  0.000  0.981  0.019
    occupations:
  0.723 -0.000 -0.001
 -0.000  0.846  0.001
 -0.001  0.001  0.841
atom   75   Tr[ns(na)] =   4.81097
    eigenvalues: 
  0.719  0.842  0.845
    eigenvectors:
  1.000  0.000  0.000
  0.000  1.000  0.000
  0.000  0.000  1.000
    occupations:
  0.719  0.000 -0.001
  0.000  0.842 -0.000
 -0.001 -0.000  0.845
atom   76   Tr[ns(na)] =   4.80145
    eigenvalues: 
  0.715  0.842  0.844
    eigenvectors:
  1.000  0.000  0.000
  0.000  0.002  0.998
  0.000  0.998  0.002
    occupations:
  0.715 -0.000 -0.001
 -0.000  0.844 -0.000
 -0.001 -0.000  0.842
atom   77   Tr[ns(na)] =   4.79903
    eigenvalues: 
  0.714  0.842  0.843
    eigenvectors:
  1.000  0.000  0.000
  0.000  0.963  0.037
  0.000  0.037  0.963
    occupations:
  0.714  0.000  0.000
  0.000  0.842  0.000
  0.000  0.000  0.843
atom   78   Tr[ns(na)] =   4.79824
    eigenvalues: 
  0.713  0.842  0.843
    eigenvectors:
  1.000  0.000  0.000
  0.000  0.932  0.068
  0.000  0.068  0.932
    occupations:
  0.713  0.000 -0.000
  0.000  0.842 -0.000
 -0.000 -0.000  0.843
atom   79   Tr[ns(na)] =   4.80781
    eigenvalues: 
  0.718  0.842  0.844
    eigenvectors:
  1.000  0.000  0.000
  0.000  0.334  0.666
  0.000  0.666  0.334
    occupations:
  0.718 -0.000  0.000
 -0.000  0.843 -0.001
  0.000 -0.001  0.843
atom   80   Tr[ns(na)] =   4.80430
    eigenvalues: 
  0.716  0.842  0.844
    eigenvectors:
  1.000  0.000  0.000
  0.000  0.408  0.592
  0.000  0.592  0.408
    occupations:
  0.716 -0.000  0.000
 -0.000  0.843  0.001
  0.000  0.001  0.843
atom   81   Tr[ns(na)] =   4.81650
    eigenvalues: 
  0.722  0.841  0.845
    eigenvectors:
  1.000  0.000  0.000
  0.000  0.709  0.291
  0.000  0.291  0.709
    occupations:
  0.722 -0.000 -0.001
 -0.000  0.842 -0.002
 -0.001 -0.002  0.844
atom   82   Tr[ns(na)] =   4.81128
    eigenvalues: 
  0.719  0.842  0.845
    eigenvectors:
  1.000  0.000  0.000
  0.000  0.158  0.842
  0.000  0.842  0.158
    occupations:
  0.719 -0.000 -0.001
 -0.000  0.844  0.001
 -0.001  0.001  0.842
atom   83   Tr[ns(na)] =   4.82397
    eigenvalues: 
  0.725  0.841  0.846
    eigenvectors:
  1.000  0.000  0.000
  0.000  0.863  0.137
  0.000  0.137  0.863
    occupations:
  0.725 -0.001 -0.001
 -0.001  0.842 -0.002
 -0.001 -0.002  0.845
atom   84   Tr[ns(na)] =   4.81242
    eigenvalues: 
  0.719  0.842  0.845
    eigenvectors:
  1.000  0.000  0.000
  0.000  0.071  0.929
  0.000  0.929  0.071
    occupations:
  0.719 -0.000 -0.001
 -0.000  0.845  0.001
 -0.001  0.001  0.842
atom   85   Tr[ns(na)] =   4.81342
    eigenvalues: 
  0.720  0.842  0.845
    eigenvectors:
  1.000  0.000  0.000
  0.000  0.950  0.050
  0.000  0.050  0.950
    occupations:
  0.720 -0.000 -0.000
 -0.000  0.842 -0.001
 -0.000 -0.001  0.845
atom   86   Tr[ns(na)] =   4.80251
    eigenvalues: 
  0.715  0.842  0.844
    eigenvectors:
  1.000  0.000  0.000
  0.000  0.090  0.910
  0.000  0.910  0.090
    occupations:
  0.715 -0.000 -0.001
 -0.000  0.844  0.000
 -0.001  0.000  0.842
atom   87   Tr[ns(na)] =   4.79922
    eigenvalues: 
  0.714  0.842  0.843
    eigenvectors:
  1.000  0.000  0.000
  0.000  0.906  0.094
  0.000  0.094  0.906
    occupations:
  0.714 -0.000  0.000
 -0.000  0.842 -0.000
  0.000 -0.000  0.843
atom   88   Tr[ns(na)] =   4.79801
    eigenvalues: 
  0.714  0.842  0.843
    eigenvectors:
  1.000  0.000  0.000
  0.000  0.945  0.055
  0.000  0.055  0.945
    occupations:
  0.714 -0.000 -0.000
 -0.000  0.842  0.000
 -0.000  0.000  0.843
atom   89   Tr[ns(na)] =   4.80664
    eigenvalues: 
  0.717  0.842  0.844
    eigenvectors:
  1.000  0.000  0.000
  0.000  0.833  0.167
  0.000  0.167  0.833
    occupations:
  0.717 -0.000 -0.001
 -0.000  0.842 -0.001
 -0.001 -0.001  0.844
atom   90   Tr[ns(na)] =   4.79732
    eigenvalues: 
  0.713  0.842  0.844
    eigenvectors:
  1.000  0.000  0.000
  0.000  0.033  0.967
  0.000  0.967  0.033
    occupations:
  0.713  0.000 -0.000
  0.000  0.844  0.000
 -0.000  0.000  0.842
atom   91   Tr[ns(na)] =   4.80655
    eigenvalues: 
  0.717  0.842  0.844
    eigenvectors:
  1.000  0.000  0.000
  0.000  0.921  0.079
  0.000  0.079  0.921
    occupations:
  0.717 -0.000 -0.000
 -0.000  0.842 -0.000
 -0.000 -0.000  0.844
atom   92   Tr[ns(na)] =   4.79738
    eigenvalues: 
  0.713  0.842  0.844
    eigenvectors:
  1.000  0.000  0.000
  0.000  0.181  0.819
  0.000  0.819  0.181
    occupations:
  0.713  0.000 -0.000
  0.000  0.843  0.000
 -0.000  0.000  0.843
atom   93   Tr[ns(na)] =   4.79907
    eigenvalues: 
  0.714  0.842  0.843
    eigenvectors:
  1.000  0.000  0.000
  0.000  0.881  0.119
  0.000  0.119  0.881
    occupations:
  0.714 -0.000  0.000
 -0.000  0.843 -0.000
  0.000 -0.000  0.843
atom   94   Tr[ns(na)] =   4.79667
    eigenvalues: 
  0.713  0.842  0.843
    eigenvectors:
  1.000  0.000  0.000
  0.000  0.835  0.165
  0.000  0.165  0.835
    occupations:
  0.713 -0.000 -0.000
 -0.000  0.842  0.000
 -0.000  0.000  0.843
atom   95   Tr[ns(na)] =   4.79563
    eigenvalues: 
  0.712  0.843  0.843
    eigenvectors:
  1.000  0.000  0.000
  0.000  0.907  0.093
  0.000  0.093  0.907
    occupations:
  0.712 -0.000  0.000
 -0.000  0.843 -0.000
  0.000 -0.000  0.843
atom   96   Tr[ns(na)] =   4.79493
    eigenvalues: 
  0.712  0.842  0.843
    eigenvectors:
  1.000  0.000  0.000
  0.000  0.874  0.126
  0.000  0.126  0.874
    occupations:
  0.712 -0.000  0.000
 -0.000  0.842  0.000
  0.000  0.000  0.843
atom   97   Tr[ns(na)] =   4.75737
    eigenvalues: 
  0.761  0.780  0.837
    eigenvectors:
  1.000  0.000  0.000
  0.000  0.000  1.000
  0.000  1.000  0.000
    occupations:
  0.761 -0.000  0.000
 -0.000  0.837  0.000
  0.000  0.000  0.780
atom   98   Tr[ns(na)] =   4.76560
    eigenvalues: 
  0.764  0.781  0.837
    eigenvectors:
  1.000  0.000  0.000
  0.000  0.900  0.100
  0.000  0.100  0.900
    occupations:
  0.764 -0.000  0.000
 -0.000  0.787 -0.017
  0.000 -0.017  0.832
atom   99   Tr[ns(na)] =   4.93388
    eigenvalues: 
  0.775  0.818  0.874
    eigenvectors:
  1.000  0.000  0.000
  0.000  0.747  0.253
  0.000  0.253  0.747
    occupations:
  0.775  0.000 -0.000
  0.000  0.832 -0.024
 -0.000 -0.024  0.860
atom  100   Tr[ns(na)] =   4.93694
    eigenvalues: 
  0.776  0.819  0.873
    eigenvectors:
  1.000  0.000  0.000
[...]
     atom   27 type  3   force =     0.00002006    0.00006067   -0.00009340
     atom   28 type  3   force =    -0.00000792    0.00001276   -0.00007497
     atom   29 type  3   force =    -0.00002312   -0.00013972   -0.00004043
     atom   30 type  3   force =    -0.00003970    0.00015776   -0.00001665
     atom   31 type  3   force =     0.00001083   -0.00018586    0.00003934
     atom   32 type  3   force =     0.00000152    0.00012466    0.00011266
     atom   33 type  3   force =     0.00003249    0.00009024    0.00002782
     atom   34 type  3   force =     0.00003727   -0.00000366    0.00006677
     atom   35 type  3   force =     0.00001429   -0.00013343    0.00006179
     atom   36 type  3   force =    -0.00000965    0.00015967    0.00000400
     atom   37 type  3   force =     0.00006236   -0.00018442   -0.00005595
     atom   38 type  3   force =     0.00002754    0.00012686   -0.00001825
     atom   39 type  3   force =     0.00001894   -0.00004644   -0.00003428
     atom   40 type  3   force =    -0.00001770   -0.00011369   -0.00001728
     atom   41 type  3   force =     0.00003707    0.00006267   -0.00001671
     atom   42 type  3   force =    -0.00000750    0.00000471    0.00003402
     atom   43 type  3   force =    -0.00000221   -0.00013487   -0.00001595
     atom   44 type  3   force =    -0.00004853    0.00015159   -0.00000102
     atom   45 type  3   force =     0.00001276   -0.00017691   -0.00001909
     atom   46 type  3   force =     0.00000729    0.00012022    0.00002314
     atom   47 type  3   force =    -0.00001696   -0.00004171    0.00011212
     atom   48 type  3   force =    -0.00001285   -0.00010283    0.00012413
     atom   49 type  3   force =     0.00003269    0.00008267    0.00000030
     atom   50 type  3   force =     0.00005091    0.00000144   -0.00003297
     atom   51 type  3   force =     0.00001772   -0.00013387    0.00002027
     atom   52 type  3   force =    -0.00000059    0.00015498   -0.00000301
     atom   53 type  3   force =     0.00005941   -0.00018820   -0.00000525
     atom   54 type  3   force =     0.00003753    0.00013009   -0.00002774
     atom   55 type  3   force =    -0.00000076   -0.00004458    0.00000357
     atom   56 type  3   force =    -0.00001294   -0.00010594   -0.00003161
     atom   57 type  3   force =     0.00002718    0.00006442   -0.00003425
     atom   58 type  3   force =     0.00000857    0.00001672   -0.00004496
     atom   59 type  3   force =    -0.00000672   -0.00014512    0.00004331
     atom   60 type  3   force =    -0.00003241    0.00015696    0.00005450
     atom   61 type  3   force =     0.00001380   -0.00017070    0.00003814
     atom   62 type  3   force =     0.00000743    0.00012496    0.00001786
     atom   63 type  3   force =    -0.00001371   -0.00004578    0.00000880
     atom   64 type  3   force =    -0.00000188   -0.00009279    0.00000487
     atom   65 type  3   force =     0.00000686   -0.00014593   -0.00004620
     atom   66 type  3   force =     0.00001580    0.00016553   -0.00002120
     atom   67 type  3   force =     0.00005570   -0.00020343   -0.00003316
     atom   68 type  3   force =     0.00004922    0.00013798   -0.00006697
     atom   69 type  3   force =    -0.00000999   -0.00006263   -0.00008907
     atom   70 type  3   force =     0.00000956   -0.00009493   -0.00009283
     atom   71 type  3   force =     0.00000167    0.00005651   -0.00008419
     atom   72 type  3   force =     0.00003238    0.00001592   -0.00008057
     atom   73 type  3   force =    -0.00003178   -0.00015398   -0.00008382
     atom   74 type  3   force =    -0.00002746    0.00015838   -0.00005119
     atom   75 type  3   force =     0.00000471   -0.00017638    0.00000720
     atom   76 type  3   force =     0.00002018    0.00012363    0.00001859
     atom   77 type  3   force =    -0.00002387   -0.00003881    0.00002315
     atom   78 type  3   force =     0.00000404   -0.00009968    0.00000260
     atom   79 type  3   force =    -0.00001428   -0.00007599   -0.00006880
     atom   80 type  3   force =     0.00001044   -0.00008955   -0.00005133
     atom   81 type  3   force =    -0.00000534    0.00004336   -0.00002221
     atom   82 type  3   force =     0.00003883    0.00001963    0.00005550
     atom   83 type  3   force =    -0.00004635   -0.00016197   -0.00000672
     atom   84 type  3   force =    -0.00000874    0.00015532   -0.00000064
     atom   85 type  3   force =     0.00000450   -0.00018477   -0.00005500
     atom   86 type  3   force =     0.00001357    0.00012674   -0.00004415
     atom   87 type  3   force =    -0.00002563   -0.00004430    0.00000156
     atom   88 type  3   force =     0.00000062   -0.00011034    0.00003792
     atom   89 type  3   force =    -0.00003420   -0.00015387    0.00008516
     atom   90 type  3   force =    -0.00002237    0.00015770    0.00006606
     atom   91 type  3   force =     0.00000601   -0.00019037    0.00005381
     atom   92 type  3   force =     0.00001168    0.00012886    0.00006062
     atom   93 type  3   force =    -0.00001914   -0.00004480   -0.00000577
     atom   94 type  3   force =    -0.00001083   -0.00010465   -0.00000142
     atom   95 type  3   force =    -0.00000651   -0.00004332    0.00011696
     atom   96 type  3   force =    -0.00000461   -0.00010785    0.00008715
     atom   97 type  3   force =    -0.00047294    0.00015135   -0.00007504
     atom   98 type  3   force =     0.00013986   -0.00034429   -0.00005464
     atom   99 type  3   force =    -0.00017665    0.00061868   -0.00008125
     atom  100 type  3   force =    -0.00027683   -0.00026921   -0.00004297
     atom  101 type  3   force =     0.00028682    0.00042324    0.00005825
     atom  102 type  3   force =    -0.00029289   -0.00020205    0.00003410
     atom  103 type  3   force =    -0.00050192    0.00005115   -0.00002863
     atom  104 type  3   force =     0.00043275   -0.00073041   -0.00000019
     atom  105 type  3   force =     0.00058638   -0.00006478   -0.00023172
     atom  106 type  3   force =    -0.00012174    0.00025771   -0.00022479
     atom  107 type  3   force =     0.00038148   -0.00028952   -0.00006492
     atom  108 type  3   force =    -0.00023389   -0.00008300   -0.00017977
     atom  109 type  3   force =    -0.00012907    0.00017759   -0.00010309
     atom  110 type  3   force =    -0.00008790    0.00007390   -0.00022315
     atom  111 type  3   force =     0.00031872    0.00021315   -0.00017137
     atom  112 type  3   force =     0.00033588    0.00011870   -0.00007355
     atom  113 type  3   force =     0.00011979    0.00003620   -0.00012123
     atom  114 type  3   force =    -0.00011723    0.00015620   -0.00018931
     atom  115 type  3   force =    -0.00019487   -0.00019877   -0.00006136
     atom  116 type  3   force =    -0.00015724   -0.00007700   -0.00000260
     atom  117 type  3   force =     0.00026820    0.00004653   -0.00000373
     atom  118 type  3   force =    -0.00009980    0.00003954   -0.00001504
     atom  119 type  3   force =     0.00014637    0.00041692    0.00017201
     atom  120 type  3   force =    -0.00027976   -0.00030687    0.00013649
     atom  121 type  3   force =    -0.00004665   -0.00003212   -0.00002322
     atom  122 type  3   force =    -0.00006277    0.00002166    0.00004172
     atom  123 type  3   force =     0.00001982    0.00032063   -0.00001274
     atom  124 type  3   force =    -0.00012245   -0.00029731   -0.00011639
     atom  125 type  3   force =     0.00030667   -0.00015466    0.00007601
     atom  126 type  3   force =     0.00005867   -0.00017737    0.00010841
     atom  127 type  3   force =    -0.00033837   -0.00005846   -0.00009461
     atom  128 type  3   force =    -0.00006437    0.00018258   -0.00017034
     atom  129 type  1   force =    -0.00055206   -0.00072541    0.00046954
     atom  130 type  2   force =    -0.00044911    0.00001538   -0.00022752
     atom  131 type  2   force =     0.00054995    0.00010736    0.00025065
     atom  132 type  2   force =    -0.00006618    0.00051499    0.00026934
     atom  133 type  2   force =     0.00014000   -0.00001193   -0.00011397
     atom  134 type  2   force =    -0.00013150   -0.00022218    0.00015357
     atom  135 type  2   force =     0.00032335    0.00012006   -0.00010050
     atom  136 type  2   force =     0.00005298    0.00003254    0.00019433
     atom  137 type  2   force =    -0.00042431    0.00033189   -0.00020141
     atom  138 type  4   force =    -0.00033981   -0.00016797   -0.00004224
     atom  139 type  4   force =    -0.00020958    0.00019054    0.00001679
     atom  140 type  4   force =     0.00042506    0.00050808    0.00032887
     atom  141 type  4   force =     0.00011101   -0.00028659    0.00036628
     atom  142 type  4   force =     0.00002804    0.00025162    0.00003340
     atom  143 type  4   force =     0.00003184    0.00029594   -0.00000781
     atom  144 type  4   force =     0.00024701    0.00072749    0.00028911
     atom  145 type  4   force =    -0.00056978    0.00040442    0.00026557
     atom  146 type  4   force =    -0.00003203    0.00002085   -0.00001400
     atom  147 type  4   force =     0.00027146   -0.00035439    0.00006681
     atom  148 type  4   force =     0.00022311   -0.00032116    0.00005091
     atom  149 type  4   force =     0.00012140    0.00004044   -0.00003850
     atom  150 type  4   force =    -0.00016063   -0.00013373   -0.00005124
     atom  151 type  4   force =    -0.00028028    0.00010237    0.00007360
     atom  152 type  4   force =     0.00043183    0.00006670    0.00014358
     atom  153 type  4   force =    -0.00021498   -0.00014387    0.00002440

     Total force =     0.003541     Total SCF correction =     0.000415
     SCF correction compared to forces is large: reduce conv_thr to get better values

     bfgs converged in  31 scf cycles and  30 bfgs steps
     (criteria: energy <  1.0E-04, force <  1.0E-03)

     End of BFGS Geometry Optimization

     Final energy   =   -1712.9671723740 Ry
Begin final coordinates

ATOMIC_POSITIONS (angstrom)
C        0.001444956  -0.017850626   1.977939471
C        0.001378213   1.402137949   1.978326391
C        2.461889377  -0.017447312   1.977446698
C        2.462400394   1.402239821   1.976021329
C        1.232016138   2.112393917   1.978246573
C        1.231837261   3.531863194   1.978660047
C        0.001131187   4.241974933   1.979055564
C        0.001201970   5.661662942   1.980473714
C        4.921629409  -0.017094585   1.975953608
C        4.921799848   1.402255135   1.971885390
C        3.692170781   2.112485728   1.972341245
C        3.692048535   3.531534798   1.972860493
C        2.462329398   4.241980283   1.976638186
C        2.462074968   5.661381575   1.977796898
C        1.231767276   6.371886662   1.980179488
C        1.231919390   7.791478895   1.979457897
C        0.001497875   8.501603658   1.980442622
C        0.001640833   9.921399985   1.978738711
C        7.381462706  -0.017618874   1.977409133
C        7.381351748   1.402377549   1.975065146
C        6.151583824   2.112552277   1.971737747
C        6.151786500   3.531701403   1.970962227
C        4.921714285   4.241993579   1.971861934
C        4.921307040   5.661336757   1.972944860
C        3.691561978   6.371829345   1.974866214
C        3.691340660   7.791361652   1.974298287
C        2.461853204   8.501853312   1.975712370
C        2.461795340   9.921104339   1.974409166
C        1.231903046  10.631418998   1.975947259
C        1.231761289  12.050606587   1.976122814
C        0.001461972  12.761164458   1.977636132
C        0.001409134  14.181077702   1.977576597
C        9.841385635  -0.017655750   1.977634965
C        9.841536397   1.402211807   1.975868776
C        8.611413180   2.112832767   1.975017482
C        8.611569652   3.531847000   1.972518687
C        7.381591645   4.241944147   1.971482873
C        7.381518230   5.661521513   1.972002589
C        6.151357435   6.371896627   1.972056741
C        6.151161871   7.791430717   1.971453888
C        4.921056483   8.501781527   1.972329396
C        4.921107366   9.921122859   1.972482417
C        3.691276090  10.631335900   1.973247401
C        3.691419005  12.050682179   1.973848939
C        2.461864051  12.761116777   1.975349771
C        2.461690440  14.180908942   1.977040243
C        1.231614644  14.891797062   1.977433426
C        1.231726179  16.311746900   1.977710276
C       12.301168063  -0.017728821   1.977835326
C       12.300934252   1.402212781   1.976614345
C       11.071353649   2.112700299   1.974567508
C       11.071413220   3.532047179   1.973271895
C        9.841549477   4.242203700   1.972292119
C        9.841549479   5.661434715   1.972270379
C        8.611492265   6.371815816   1.971899160
C        8.611418705   7.791324731   1.972061524
C        7.381199612   8.501682767   1.971641795
C        7.381157061   9.921336648   1.971728372
C        6.151205549  10.631420005   1.972659727
C        6.151419180  12.050408819   1.975261860
C        4.921266192  12.761038064   1.975659696
C        4.921497005  14.180787024   1.977491614
C        3.691664318  14.891879229   1.977876047
C        3.691799188  16.311942261   1.977773372
C       13.531082335   2.112730735   1.977290574
C       13.530827073   3.531978530   1.976607458
C       12.300888097   4.242330939   1.974401131
C       12.300841078   5.661435477   1.975146997
C       11.071323322   6.371938922   1.973837673
C       11.071197467   7.791377682   1.974524604
C        9.841447652   8.501751204   1.972891097
C        9.841096240   9.921161718   1.972124568
C        8.611073786  10.631487388   1.971512945
C        8.611282036  12.050653426   1.972341344
C        7.381493101  12.760820726   1.975562686
C        7.381444800  14.180708228   1.977737989
C        6.151561185  14.891729685   1.978184181
C        6.151506309  16.311732159   1.977684240
C       13.530805183   6.371834294   1.979005255
C       13.530978174   7.791435650   1.979804605
C       12.300661480   8.501806490   1.977448991
C       12.300453168   9.921269234   1.976546708
C       11.070777909  10.631658597   1.973013360
C       11.070686887  12.050696484   1.972770592
C        9.841058835  12.760957342   1.972463495
C        9.841276786  14.180235845   1.976288974
C        8.611437896  14.891439901   1.977898903
C        8.611365096  16.311442379   1.978128795
C       13.530954883  10.631421087   1.978432120
C       13.530826260  12.050893207   1.977938013
C       12.300447596  12.761033165   1.976124579
C       12.300969400  14.180599348   1.977647603
C       11.071079745  14.891257847   1.978079027
C       11.071236593  16.311342188   1.978258454
C       13.531144764  14.891531270   1.977818885
C       13.531273117  16.311494217   1.977901509
C        5.782388648   9.660563939   5.512968219
C        4.489351869   7.866123884   5.515327706
C        4.432945425  10.123485620   5.505275227
C        3.622482170   9.000866511   5.507528584
C        3.894968806  11.374576458   5.488520726
C        2.266088927   9.123191948   5.496876010
C        8.085728360  10.027815806   5.517057240
C        4.874793604   5.564424427   5.520378800
C       10.341320318  10.090392840   5.526494175
C        9.217765018  10.896464545   5.523548934
C        9.877602472   8.740184830   5.519549835
C       11.590505623  10.633738130   5.530326767
C        9.332793280  12.253393501   5.522113684
C        5.540103865   3.406707013   5.522545570
C        4.414710317   4.212084399   5.526850669
C        6.669439232   4.279187624   5.516437982
C        5.430494407   2.048586859   5.519415563
C        3.168379753   3.663673781   5.531523036
C       10.255345212   6.444623269   5.513662078
C       10.319868347   4.190890629   5.503106046
C       11.127627648   5.314490549   5.505979404
C        8.969115667   4.657428223   5.510664494
C       10.861680090   2.942086867   5.489338603
C       12.484974614   5.201345071   5.498317282
C        1.734261293  10.377718726   5.481017653
C        2.537394083  11.489386129   5.475262894
C        4.179931400   1.507036565   5.521193022
C        3.064335399   2.304925277   5.527953686
C       13.020817983   3.947761732   5.487743461
C       12.220443420   2.834716356   5.481834616
C       10.585006030  12.791104998   5.524068328
C       11.699458319  11.992211826   5.528700852
Zn       7.347206452   7.178872741   5.477155728
N        5.758847441   8.314006016   5.517752407
N        6.842164083  10.421720078   5.515274456
N        4.105610304   6.618447018   5.518657720
N        8.530363115   8.756191505   5.513411079
N       10.647965073   7.688137986   5.517861239
N        6.222048269   5.548947417   5.514049665
N        7.913618010   3.891099358   5.513635181
N        8.985508872   6.001764212   5.516092150
H        2.292454561   4.307431754   5.537516888
H        6.323723103   1.428061709   5.513826596
H       10.217965166   2.065233822   5.481397173
H       13.108367121   6.092223189   5.497734627
H       12.464000584   9.986156986   5.534070472
H        8.441984906  12.876715880   5.517892182
H        4.544359537  12.246062908   5.481346959
H        1.640309496   8.233988863   5.496879289
H        2.081765222   1.840101268   5.529496280
H        4.060300751   0.426868047   5.514987991
H       12.680360785   1.850115588   5.469210217
H       14.100767794   3.824973224   5.481256288
H       12.683439140  12.454471834   5.530432063
H       10.707145868  13.871193474   5.519668630
H        2.079710646  12.475141881   5.457710870
H        0.654811786  10.503027310   5.469628526
End final coordinates



     Writing output data file x0.relax.slg.v.3k.save
 
     init_run     :     46.97s CPU     49.29s WALL (       1 calls)
     electrons    :  21276.87s CPU  22145.29s WALL (      31 calls)
     update_pot   :     56.62s CPU     60.25s WALL (      30 calls)
     forces       :   1976.61s CPU   1991.74s WALL (      31 calls)

     Called by init_run:
     wfcinit      :     44.19s CPU     46.10s WALL (       1 calls)
     potinit      :      0.96s CPU      1.01s WALL (       1 calls)

     Called by electrons:
     c_bands      :  17888.44s CPU  18586.84s WALL (     255 calls)
     sum_band     :   1830.31s CPU   1943.97s WALL (     255 calls)
     v_of_rho     :     23.47s CPU     24.13s WALL (     272 calls)
     mix_rho      :   1528.25s CPU   1576.32s WALL (     255 calls)

     Called by c_bands:
     init_us_2    :     23.46s CPU     25.00s WALL (    3020 calls)
     cegterg      :  17805.72s CPU  18501.40s WALL (    1275 calls)

     Called by sum_band:

     Called by *egterg:
     h_psi        :  11296.37s CPU  11793.84s WALL (    5328 calls)
     g_psi        :     28.07s CPU     28.55s WALL (    4048 calls)
     cdiaghg      :   2443.07s CPU   2491.98s WALL (    5103 calls)

     Called by h_psi:
     add_vuspsi   :    287.36s CPU    286.33s WALL (    5328 calls)
     vhpsi        :   4442.99s CPU   4448.76s WALL (    5328 calls)

     General routines
     calbec       :   2688.68s CPU   2694.60s WALL (  219011 calls)
     fft          :     19.69s CPU     19.58s WALL (    3081 calls)
     ffts         :   1063.64s CPU   1058.79s WALL (  179080 calls)
     fftw         :   7213.34s CPU   7589.77s WALL ( 2307110 calls)
     davcio       :      0.05s CPU      5.09s WALL (      10 calls)
 
     Parallel routines
     fft_scatter  :   3934.70s CPU   5067.56s WALL ( 2489271 calls)

     Hubbard U routines
     new_ns       :    382.21s CPU    382.74s WALL (     255 calls)
     vhpsi        :   4442.99s CPU   4448.76s WALL (    5328 calls)
     force_hub    :   1858.88s CPU   1871.91s WALL (      31 calls)
 
     PWSCF        :     6h30m CPU        6h45m WALL

 
   This run was terminated on:  16:12:11   6Sep2019            

=------------------------------------------------------------------------------=
   JOB DONE.
=------------------------------------------------------------------------------=
